/*--------------------------------*- C++ -*----------------------------------*\
| =========                 |                                                 |
| \\      /  F ield         | OpenFOAM: The Open Source CFD Toolbox           |
|  \\    /   O peration     | Version:  2406                                  |
|   \\  /    A nd           | Website:  www.openfoam.com                      |
|    \\/     M anipulation  |                                                 |
\*---------------------------------------------------------------------------*/
FoamFile
{
    version     2.0;
    format      ascii;
    arch        "LSB;label=32;scalar=64";
    class       volScalarField;
    location    "0.25";
    object      p;
}
// * * * * * * * * * * * * * * * * * * * * * * * * * * * * * * * * * * * * * //

dimensions      [1 -1 -2 0 0 0 0];

internalField   nonuniform List<scalar> 
400
(
1
1
1
1
1
1
1
1
1
1
1
1
1
1
1
1
1
1
1
1
1
1
1
1
1
1
1
1
1
1
1
1
1
1
1
1
1
1
1
0.999999
0.999999
0.999998
0.999998
0.999996
0.999994
0.999992
0.999987
0.999982
0.999973
0.999961
0.999943
0.999919
0.999886
0.99984
0.999779
0.999696
0.999587
0.999443
0.999256
0.999016
0.998712
0.998329
0.997852
0.997266
0.996553
0.995694
0.99467
0.993463
0.992054
0.990425
0.988561
0.986447
0.984071
0.981425
0.978502
0.975298
0.971812
0.968046
0.964006
0.959696
0.955127
0.950309
0.945253
0.939972
0.934479
0.928789
0.922916
0.916873
0.910675
0.904335
0.897866
0.891282
0.884594
0.877813
0.870951
0.864018
0.857022
0.849974
0.842882
0.835753
0.828594
0.821412
0.814212
0.807002
0.799786
0.792568
0.785353
0.778145
0.770948
0.763765
0.7566
0.749455
0.742332
0.735235
0.728165
0.721125
0.714116
0.70714
0.700198
0.693293
0.686424
0.679594
0.672804
0.666053
0.659344
0.652677
0.646053
0.639472
0.632935
0.626442
0.619995
0.613592
0.607235
0.600925
0.59466
0.588442
0.582271
0.576146
0.570069
0.564038
0.558055
0.552119
0.54623
0.540388
0.534593
0.528846
0.523146
0.517493
0.511887
0.506328
0.500815
0.49535
0.489931
0.484558
0.479232
0.473952
0.468718
0.463531
0.458389
0.453292
0.448241
0.443236
0.438275
0.43336
0.42849
0.423665
0.418884
0.414149
0.409458
0.404812
0.40021
0.395654
0.391143
0.386677
0.382258
0.377885
0.373559
0.369281
0.365053
0.360876
0.356752
0.352683
0.348675
0.344729
0.340853
0.337054
0.33334
0.329722
0.326217
0.322843
0.319622
0.316583
0.31376
0.311193
0.308921
0.306985
0.305415
0.304223
0.303396
0.302891
0.30264
0.302563
0.302585
0.302649
0.30272
0.30278
0.302826
0.302861
0.302887
0.302908
0.302926
0.302942
0.302957
0.302971
0.302984
0.302996
0.303007
0.303018
0.303027
0.303036
0.303045
0.303052
0.303059
0.303066
0.303071
0.303077
0.303082
0.303087
0.303091
0.303095
0.303098
0.303101
0.303104
0.303107
0.30311
0.303112
0.303114
0.303116
0.303118
0.30312
0.303121
0.303123
0.303124
0.303125
0.303126
0.303128
0.303129
0.30313
0.30313
0.303131
0.303132
0.303133
0.303133
0.303134
0.303134
0.303135
0.303135
0.303136
0.303136
0.303137
0.303137
0.303137
0.303138
0.303138
0.303138
0.303139
0.303139
0.30314
0.30314
0.303141
0.303142
0.303143
0.303145
0.303146
0.303148
0.30315
0.303153
0.303156
0.303158
0.303161
0.303164
0.303167
0.303169
0.30317
0.303172
0.303172
0.303171
0.30317
0.303167
0.303164
0.30316
0.303154
0.303149
0.303142
0.303136
0.30313
0.303125
0.303121
0.303118
0.303116
0.303115
0.303115
0.303116
0.303118
0.30312
0.303123
0.303126
0.303128
0.30313
0.303133
0.303134
0.303136
0.303137
0.303138
0.303139
0.30314
0.30314
0.30314
0.303141
0.303141
0.303141
0.303141
0.303141
0.303141
0.303141
0.303141
0.303141
0.303141
0.303141
0.303141
0.303141
0.303141
0.303141
0.303141
0.303142
0.303142
0.303142
0.303142
0.303142
0.303141
0.303141
0.303141
0.303141
0.303141
0.303141
0.303141
0.303141
0.303141
0.303141
0.303141
0.303141
0.30314
0.30314
0.303139
0.303138
0.303136
0.303133
0.303128
0.30312
0.303107
0.303086
0.303052
0.302996
0.302905
0.302755
0.302508
0.302105
0.301442
0.300355
0.29857
0.295638
0.290822
0.282902
0.26986
0.248321
0.213857
0.168705
0.130074
0.110068
0.10295
0.100828
0.10023
0.100064
0.100018
0.100005
0.100001
0.1
0.1
0.1
0.1
0.1
0.1
0.1
0.1
0.1
0.1
0.1
0.1
0.1
0.1
)
;

boundaryField
{
    sides
    {
        type            zeroGradient;
    }
    empty1
    {
        type            empty;
    }
    empty2
    {
        type            empty;
    }
}


// ************************************************************************* //
