/*--------------------------------*- C++ -*----------------------------------*\
| =========                 |                                                 |
| \\      /  F ield         | OpenFOAM: The Open Source CFD Toolbox           |
|  \\    /   O peration     | Version:  2406                                  |
|   \\  /    A nd           | Website:  www.openfoam.com                      |
|    \\/     M anipulation  |                                                 |
\*---------------------------------------------------------------------------*/
FoamFile
{
    version     2.0;
    format      ascii;
    arch        "LSB;label=32;scalar=64";
    class       volScalarField;
    location    "0.25";
    object      rho;
}
// * * * * * * * * * * * * * * * * * * * * * * * * * * * * * * * * * * * * * //

dimensions      [1 -3 0 0 0 0 0];

internalField   nonuniform List<scalar> 
400
(
0.999943
0.999943
0.999943
0.999943
0.999943
0.999943
0.999943
0.999943
0.999943
0.999943
0.999943
0.999943
0.999943
0.999943
0.999943
0.999943
0.999943
0.999943
0.999943
0.999943
0.999943
0.999943
0.999943
0.999943
0.999943
0.999943
0.999943
0.999943
0.999943
0.999943
0.999943
0.999943
0.999943
0.999943
0.999943
0.999943
0.999943
0.999943
0.999943
0.999943
0.999943
0.999942
0.999942
0.999941
0.99994
0.999938
0.999935
0.99993
0.999924
0.999916
0.999904
0.999887
0.999863
0.999831
0.999788
0.999729
0.999652
0.99955
0.999418
0.999249
0.999033
0.998762
0.998425
0.998009
0.997503
0.996894
0.996167
0.995309
0.994306
0.993147
0.991818
0.99031
0.988614
0.986722
0.984629
0.982333
0.979831
0.977125
0.974217
0.971111
0.967812
0.964327
0.960664
0.956832
0.952838
0.948693
0.944406
0.939986
0.935444
0.930788
0.926027
0.92117
0.916226
0.911202
0.906105
0.900944
0.895725
0.890453
0.885135
0.879777
0.874382
0.868957
0.863505
0.858031
0.852537
0.847028
0.841507
0.835977
0.830441
0.8249
0.819358
0.813817
0.808278
0.802744
0.797216
0.791695
0.786184
0.780683
0.775194
0.769718
0.764256
0.758809
0.753378
0.747964
0.742567
0.737188
0.731829
0.726488
0.721168
0.715869
0.710591
0.705334
0.700099
0.694887
0.689697
0.684531
0.679387
0.674268
0.669172
0.6641
0.659053
0.65403
0.649032
0.644059
0.639111
0.634188
0.629291
0.624419
0.619572
0.614751
0.609955
0.605186
0.600442
0.595724
0.591032
0.586366
0.581727
0.577113
0.572525
0.567964
0.563429
0.55892
0.554438
0.549982
0.545553
0.54115
0.536775
0.532426
0.528104
0.523809
0.519542
0.515303
0.511092
0.50691
0.502758
0.498635
0.494544
0.490484
0.486459
0.482469
0.478516
0.474604
0.470737
0.466917
0.463153
0.45945
0.455819
0.45227
0.44882
0.445487
0.442294
0.439272
0.436455
0.433883
0.431599
0.429644
0.428051
0.426835
0.425985
0.425461
0.425194
0.425106
0.425121
0.425178
0.425243
0.425297
0.425337
0.425365
0.425385
0.425398
0.425409
0.425418
0.425425
0.425431
0.425436
0.425439
0.425442
0.425444
0.425444
0.425444
0.425442
0.42544
0.425437
0.425433
0.425428
0.425423
0.425416
0.425409
0.425402
0.425393
0.425384
0.425374
0.425363
0.425352
0.42534
0.425327
0.425314
0.4253
0.425285
0.42527
0.425253
0.425236
0.425218
0.4252
0.42518
0.425159
0.425138
0.425115
0.425091
0.425066
0.42504
0.425012
0.424982
0.424952
0.424919
0.424884
0.424848
0.424809
0.424767
0.424723
0.424676
0.424625
0.424569
0.424509
0.424443
0.42437
0.424286
0.424189
0.424074
0.423933
0.423756
0.423527
0.423228
0.422831
0.422303
0.421604
0.420685
0.419488
0.417951
0.416008
0.41359
0.410633
0.407077
0.402878
0.398006
0.392453
0.386236
0.3794
0.372017
0.364187
0.35603
0.347686
0.339305
0.331037
0.323025
0.315398
0.308265
0.301707
0.295779
0.290509
0.285899
0.28193
0.278566
0.275758
0.273449
0.271579
0.270086
0.268912
0.268003
0.26731
0.266788
0.266403
0.266123
0.265923
0.265783
0.265687
0.265623
0.265582
0.265557
0.265542
0.265534
0.265531
0.265531
0.265533
0.265535
0.265538
0.265541
0.265543
0.265546
0.265548
0.26555
0.265551
0.265553
0.265554
0.265555
0.265556
0.265557
0.265558
0.265558
0.265559
0.265559
0.265559
0.26556
0.26556
0.26556
0.26556
0.26556
0.26556
0.26556
0.26556
0.26556
0.26556
0.26556
0.265559
0.265558
0.265557
0.265555
0.265552
0.265547
0.265539
0.265525
0.265503
0.265467
0.265408
0.265311
0.265153
0.264893
0.264466
0.263765
0.262616
0.260729
0.257631
0.252543
0.244173
0.230346
0.207923
0.177193
0.148986
0.133316
0.127473
0.125693
0.125188
0.125047
0.125008
0.124997
0.124994
0.124993
0.124993
0.124993
0.124993
0.124993
0.124993
0.124993
0.124993
0.124993
0.124993
0.124993
0.124993
0.124993
0.124993
)
;

boundaryField
{
    sides
    {
        type            calculated;
        value           nonuniform List<scalar> 2(0.124993 0.999943);
    }
    empty1
    {
        type            empty;
    }
    empty2
    {
        type            empty;
    }
}


// ************************************************************************* //
