/*--------------------------------*- C++ -*----------------------------------*\
| =========                 |                                                 |
| \\      /  F ield         | OpenFOAM: The Open Source CFD Toolbox           |
|  \\    /   O peration     | Version:  2406                                  |
|   \\  /    A nd           | Website:  www.openfoam.com                      |
|    \\/     M anipulation  |                                                 |
\*---------------------------------------------------------------------------*/
FoamFile
{
    version     2.0;
    format      ascii;
    arch        "LSB;label=32;scalar=64";
    class       volScalarField;
    location    "0.25";
    object      T;
}
// * * * * * * * * * * * * * * * * * * * * * * * * * * * * * * * * * * * * * //

dimensions      [0 0 0 1 0 0 0];

internalField   nonuniform List<scalar> 
400
(
2.5
2.5
2.5
2.5
2.5
2.5
2.5
2.5
2.5
2.5
2.5
2.5
2.5
2.5
2.5
2.5
2.5
2.5
2.5
2.5
2.5
2.5
2.5
2.5
2.5
2.5
2.5
2.5
2.5
2.5
2.5
2.5
2.5
2.5
2.5
2.5
2.5
2.5
2.5
2.5
2.5
2.5
2.5
2.5
2.5
2.49999
2.49999
2.49999
2.49998
2.49997
2.49996
2.49994
2.49992
2.49988
2.49984
2.49978
2.4997
2.49959
2.49945
2.49928
2.49905
2.49877
2.49843
2.498
2.49748
2.49685
2.4961
2.49522
2.4942
2.49301
2.49165
2.49011
2.48837
2.48644
2.4843
2.48195
2.4794
2.47663
2.47366
2.47048
2.46709
2.46352
2.45975
2.45581
2.45169
2.44741
2.44297
2.43839
2.43367
2.42881
2.42384
2.41875
2.41355
2.40826
2.40287
2.3974
2.39185
2.38622
2.38052
2.37477
2.36895
2.36308
2.35716
2.35119
2.34518
2.33913
2.33304
2.32692
2.32077
2.31459
2.30838
2.30215
2.2959
2.28963
2.28333
2.27703
2.2707
2.26436
2.25801
2.25165
2.24527
2.23889
2.2325
2.2261
2.21969
2.21328
2.20686
2.20043
2.19401
2.18758
2.18114
2.17471
2.16827
2.16183
2.15539
2.14895
2.14251
2.13607
2.12963
2.1232
2.11676
2.11033
2.1039
2.09747
2.09104
2.08462
2.0782
2.07178
2.06537
2.05896
2.05256
2.04616
2.03976
2.03337
2.02698
2.0206
2.01423
2.00786
2.00149
1.99514
1.98879
1.98244
1.9761
1.96977
1.96345
1.95713
1.95082
1.94452
1.93823
1.93195
1.92567
1.91941
1.91316
1.90692
1.9007
1.89449
1.88829
1.88212
1.87597
1.86984
1.86374
1.85767
1.85165
1.84567
1.83975
1.8339
1.82814
1.82249
1.81698
1.81164
1.80651
1.80164
1.79711
1.79297
1.7893
1.78618
1.78365
1.78175
1.78045
1.77968
1.77932
1.77924
1.77931
1.77944
1.77959
1.77971
1.77982
1.7799
1.77998
1.78004
1.7801
1.78016
1.78022
1.78028
1.78033
1.78039
1.78044
1.7805
1.78055
1.78061
1.78066
1.78072
1.78077
1.78082
1.78088
1.78093
1.78099
1.78105
1.7811
1.78116
1.78122
1.78128
1.78134
1.78141
1.78147
1.78154
1.78161
1.78168
1.78175
1.78182
1.7819
1.78198
1.78207
1.78215
1.78224
1.78233
1.78243
1.78253
1.78264
1.78275
1.78286
1.78298
1.78311
1.78324
1.78338
1.78353
1.78369
1.78385
1.78403
1.78422
1.78442
1.78464
1.78487
1.78513
1.78541
1.78572
1.78607
1.78648
1.78697
1.78757
1.78832
1.78929
1.79057
1.79226
1.79451
1.7975
1.80144
1.8066
1.81326
1.82175
1.83241
1.84562
1.86176
1.88117
1.90421
1.93115
1.96223
1.99758
2.03721
2.08099
2.12863
2.17967
2.23347
2.28921
2.34594
2.40262
2.45818
2.51158
2.56189
2.60834
2.65039
2.6877
2.72017
2.74789
2.77111
2.79022
2.80567
2.81793
2.82752
2.83487
2.84043
2.84455
2.84756
2.84971
2.85121
2.85225
2.85294
2.85339
2.85366
2.85382
2.8539
2.85394
2.85394
2.85392
2.8539
2.85387
2.85384
2.85381
2.85379
2.85376
2.85374
2.85372
2.85371
2.8537
2.85368
2.85367
2.85367
2.85366
2.85365
2.85365
2.85364
2.85364
2.85364
2.85363
2.85363
2.85363
2.85363
2.85363
2.85363
2.85362
2.85362
2.85362
2.85362
2.85362
2.85361
2.85361
2.8536
2.85359
2.85357
2.85354
2.85349
2.8534
2.85326
2.85303
2.85266
2.85205
2.85104
2.84938
2.84664
2.84211
2.83457
2.82192
2.80038
2.76285
2.69493
2.57121
2.38011
2.18253
2.06393
2.01895
2.00532
2.00148
2.00041
2.00011
2.00003
2.00001
2
2
2
2
2
2
2
2
2
2
2
2
2
2
)
;

boundaryField
{
    sides
    {
        type            zeroGradient;
    }
    empty1
    {
        type            empty;
    }
    empty2
    {
        type            empty;
    }
}


// ************************************************************************* //
