/*--------------------------------*- C++ -*----------------------------------*\
| =========                 |                                                 |
| \\      /  F ield         | OpenFOAM: The Open Source CFD Toolbox           |
|  \\    /   O peration     | Version:  2406                                  |
|   \\  /    A nd           | Website:  www.openfoam.com                      |
|    \\/     M anipulation  |                                                 |
\*---------------------------------------------------------------------------*/
FoamFile
{
    version     2.0;
    format      ascii;
    arch        "LSB;label=32;scalar=64";
    class       volVectorField;
    location    "0.25";
    object      U;
}
// * * * * * * * * * * * * * * * * * * * * * * * * * * * * * * * * * * * * * //

dimensions      [0 1 -1 0 0 0 0];

internalField   nonuniform List<vector> 
400
(
(-2.92084e-16 0 0)
(-5.93451e-16 0 0)
(-4.78489e-16 0 0)
(-4.06116e-16 0 0)
(-3.48055e-16 0 0)
(-1.27486e-17 0 0)
(9.67241e-16 0 0)
(3.12237e-15 0 0)
(7.61287e-15 0 0)
(1.67595e-14 0 0)
(3.42591e-14 0 0)
(6.9236e-14 0 0)
(1.37108e-13 0 0)
(2.67396e-13 0 0)
(5.16072e-13 0 0)
(9.87179e-13 0 0)
(1.87211e-12 0 0)
(3.52279e-12 0 0)
(6.57848e-12 0 0)
(1.21912e-11 0 0)
(2.24232e-11 0 0)
(4.09348e-11 0 0)
(7.41692e-11 0 0)
(1.33376e-10 0 0)
(2.3803e-10 0 0)
(4.21573e-10 0 0)
(7.40934e-10 0 0)
(1.29221e-09 0 0)
(2.23619e-09 0 0)
(3.83963e-09 0 0)
(6.54111e-09 0 0)
(1.10553e-08 0 0)
(1.85366e-08 0 0)
(3.08319e-08 0 0)
(5.087e-08 0 0)
(8.32509e-08 0 0)
(1.35132e-07 0 0)
(2.17543e-07 0 0)
(3.47316e-07 0 0)
(5.49883e-07 0 0)
(8.63289e-07 0 0)
(1.34387e-06 0 0)
(2.07417e-06 0 0)
(3.17389e-06 0 0)
(4.81472e-06 0 0)
(7.24026e-06 0 0)
(1.07923e-05 0 0)
(1.59447e-05 0 0)
(2.33474e-05 0 0)
(3.38804e-05 0 0)
(4.87212e-05 0 0)
(6.94253e-05 0 0)
(9.80212e-05 0 0)
(0.000137119 0 0)
(0.000190031 0 0)
(0.000260903 0 0)
(0.000354844 0 0)
(0.000478061 0 0)
(0.000637974 0 0)
(0.00084331 0 0)
(0.00110416 0 0)
(0.00143201 0 0)
(0.00183966 0 0)
(0.00234114 0 0)
(0.00295152 0 0)
(0.00368667 0 0)
(0.00456293 0 0)
(0.00559675 0 0)
(0.0068043 0 0)
(0.00820109 0 0)
(0.00980152 0 0)
(0.0116185 0 0)
(0.0136634 0 0)
(0.0159453 0 0)
(0.0184714 0 0)
(0.0212465 0 0)
(0.0242733 0 0)
(0.0275523 0 0)
(0.031082 0 0)
(0.0348592 0 0)
(0.0388788 0 0)
(0.0431347 0 0)
(0.0476194 0 0)
(0.0523245 0 0)
(0.0572412 0 0)
(0.06236 0 0)
(0.0676711 0 0)
(0.0731649 0 0)
(0.0788314 0 0)
(0.0846611 0 0)
(0.0906446 0 0)
(0.0967726 0 0)
(0.103037 0 0)
(0.109428 0 0)
(0.115939 0 0)
(0.122562 0 0)
(0.12929 0 0)
(0.136116 0 0)
(0.143033 0 0)
(0.150037 0 0)
(0.157122 0 0)
(0.164282 0 0)
(0.171513 0 0)
(0.17881 0 0)
(0.186169 0 0)
(0.193587 0 0)
(0.201059 0 0)
(0.208583 0 0)
(0.216155 0 0)
(0.223773 0 0)
(0.231434 0 0)
(0.239136 0 0)
(0.246875 0 0)
(0.254651 0 0)
(0.262461 0 0)
(0.270303 0 0)
(0.278175 0 0)
(0.286077 0 0)
(0.294006 0 0)
(0.301961 0 0)
(0.309941 0 0)
(0.317945 0 0)
(0.325971 0 0)
(0.334019 0 0)
(0.342086 0 0)
(0.350174 0 0)
(0.35828 0 0)
(0.366404 0 0)
(0.374545 0 0)
(0.382702 0 0)
(0.390875 0 0)
(0.399063 0 0)
(0.407265 0 0)
(0.415481 0 0)
(0.42371 0 0)
(0.431953 0 0)
(0.440207 0 0)
(0.448474 0 0)
(0.456752 0 0)
(0.465041 0 0)
(0.47334 0 0)
(0.48165 0 0)
(0.48997 0 0)
(0.4983 0 0)
(0.506639 0 0)
(0.514987 0 0)
(0.523344 0 0)
(0.531709 0 0)
(0.540082 0 0)
(0.548463 0 0)
(0.556852 0 0)
(0.565249 0 0)
(0.573652 0 0)
(0.582063 0 0)
(0.590481 0 0)
(0.598905 0 0)
(0.607335 0 0)
(0.615771 0 0)
(0.624213 0 0)
(0.632661 0 0)
(0.641114 0 0)
(0.649572 0 0)
(0.658035 0 0)
(0.666503 0 0)
(0.674975 0 0)
(0.68345 0 0)
(0.691928 0 0)
(0.70041 0 0)
(0.708894 0 0)
(0.717379 0 0)
(0.725865 0 0)
(0.734351 0 0)
(0.742835 0 0)
(0.751318 0 0)
(0.759795 0 0)
(0.768267 0 0)
(0.776731 0 0)
(0.785183 0 0)
(0.79362 0 0)
(0.802037 0 0)
(0.810429 0 0)
(0.81879 0 0)
(0.827109 0 0)
(0.835376 0 0)
(0.843576 0 0)
(0.851692 0 0)
(0.859699 0 0)
(0.86757 0 0)
(0.875265 0 0)
(0.882738 0 0)
(0.889929 0 0)
(0.896766 0 0)
(0.90316 0 0)
(0.909012 0 0)
(0.914215 0 0)
(0.918667 0 0)
(0.922286 0 0)
(0.925036 0 0)
(0.926941 0 0)
(0.928101 0 0)
(0.928673 0 0)
(0.928842 0 0)
(0.928784 0 0)
(0.928632 0 0)
(0.928467 0 0)
(0.928327 0 0)
(0.928219 0 0)
(0.92814 0 0)
(0.928079 0 0)
(0.92803 0 0)
(0.927988 0 0)
(0.92795 0 0)
(0.927915 0 0)
(0.927883 0 0)
(0.927852 0 0)
(0.927824 0 0)
(0.927798 0 0)
(0.927774 0 0)
(0.927752 0 0)
(0.927731 0 0)
(0.927712 0 0)
(0.927694 0 0)
(0.927678 0 0)
(0.927663 0 0)
(0.92765 0 0)
(0.927637 0 0)
(0.927626 0 0)
(0.927615 0 0)
(0.927606 0 0)
(0.927597 0 0)
(0.927589 0 0)
(0.927582 0 0)
(0.927575 0 0)
(0.927569 0 0)
(0.927564 0 0)
(0.927559 0 0)
(0.927554 0 0)
(0.92755 0 0)
(0.927546 0 0)
(0.927542 0 0)
(0.927539 0 0)
(0.927536 0 0)
(0.927533 0 0)
(0.92753 0 0)
(0.927528 0 0)
(0.927526 0 0)
(0.927524 0 0)
(0.927522 0 0)
(0.927521 0 0)
(0.927519 0 0)
(0.927518 0 0)
(0.927517 0 0)
(0.927516 0 0)
(0.927516 0 0)
(0.927515 0 0)
(0.927515 0 0)
(0.927514 0 0)
(0.927514 0 0)
(0.927514 0 0)
(0.927514 0 0)
(0.927515 0 0)
(0.927515 0 0)
(0.927516 0 0)
(0.927517 0 0)
(0.927519 0 0)
(0.927521 0 0)
(0.927524 0 0)
(0.927528 0 0)
(0.927535 0 0)
(0.927544 0 0)
(0.927556 0 0)
(0.927574 0 0)
(0.927599 0 0)
(0.927631 0 0)
(0.927675 0 0)
(0.92773 0 0)
(0.9278 0 0)
(0.927887 0 0)
(0.927992 0 0)
(0.928115 0 0)
(0.928257 0 0)
(0.928418 0 0)
(0.928597 0 0)
(0.928789 0 0)
(0.928993 0 0)
(0.929203 0 0)
(0.929414 0 0)
(0.92962 0 0)
(0.929814 0 0)
(0.929987 0 0)
(0.930133 0 0)
(0.930244 0 0)
(0.930315 0 0)
(0.930339 0 0)
(0.930315 0 0)
(0.930243 0 0)
(0.930124 0 0)
(0.929965 0 0)
(0.929773 0 0)
(0.929556 0 0)
(0.929326 0 0)
(0.929091 0 0)
(0.928862 0 0)
(0.928644 0 0)
(0.928445 0 0)
(0.928267 0 0)
(0.928112 0 0)
(0.92798 0 0)
(0.927871 0 0)
(0.927782 0 0)
(0.92771 0 0)
(0.927655 0 0)
(0.927612 0 0)
(0.92758 0 0)
(0.927556 0 0)
(0.927539 0 0)
(0.927526 0 0)
(0.927518 0 0)
(0.927512 0 0)
(0.927508 0 0)
(0.927506 0 0)
(0.927504 0 0)
(0.927503 0 0)
(0.927503 0 0)
(0.927503 0 0)
(0.927503 0 0)
(0.927503 0 0)
(0.927503 0 0)
(0.927503 0 0)
(0.927503 0 0)
(0.927504 0 0)
(0.927504 0 0)
(0.927504 0 0)
(0.927504 0 0)
(0.927504 0 0)
(0.927504 0 0)
(0.927504 0 0)
(0.927504 0 0)
(0.927505 0 0)
(0.927505 0 0)
(0.927505 0 0)
(0.927505 0 0)
(0.927504 0 0)
(0.927504 0 0)
(0.927504 0 0)
(0.927504 0 0)
(0.927504 0 0)
(0.927504 0 0)
(0.927503 0 0)
(0.927503 0 0)
(0.927502 0 0)
(0.927501 0 0)
(0.9275 0 0)
(0.927498 0 0)
(0.927494 0 0)
(0.927489 0 0)
(0.92748 0 0)
(0.927466 0 0)
(0.927443 0 0)
(0.927406 0 0)
(0.927345 0 0)
(0.927246 0 0)
(0.927085 0 0)
(0.92682 0 0)
(0.926385 0 0)
(0.925673 0 0)
(0.924502 0 0)
(0.922578 0 0)
(0.91941 0 0)
(0.914186 0 0)
(0.905539 0 0)
(0.891148 0 0)
(0.866972 0 0)
(0.825694 0 0)
(0.753121 0 0)
(0.623685 0 0)
(0.422828 0 0)
(0.210217 0 0)
(0.0768685 0 0)
(0.0234974 0 0)
(0.006701 0 0)
(0.00186924 0 0)
(0.000518051 0 0)
(0.000143312 0 0)
(3.9625e-05 0 0)
(1.09545e-05 0 0)
(3.02833e-06 0 0)
(8.37157e-07 0 0)
(2.31425e-07 0 0)
(6.39754e-08 0 0)
(1.76855e-08 0 0)
(4.889e-09 0 0)
(1.35153e-09 0 0)
(3.73619e-10 0 0)
(1.03285e-10 0 0)
(2.85526e-11 0 0)
(7.89307e-12 0 0)
(2.17944e-12 0 0)
(5.91195e-13 0 0)
(1.21828e-13 0 0)
)
;

boundaryField
{
    sides
    {
        type            fixedValue;
        value           uniform (0 0 0);
    }
    empty1
    {
        type            empty;
    }
    empty2
    {
        type            empty;
    }
}


// ************************************************************************* //
