/*--------------------------------*- C++ -*----------------------------------*\
| =========                 |                                                 |
| \\      /  F ield         | OpenFOAM: The Open Source CFD Toolbox           |
|  \\    /   O peration     | Version:  2412                                  |
|   \\  /    A nd           | Website:  www.openfoam.com                      |
|    \\/     M anipulation  |                                                 |
\*---------------------------------------------------------------------------*/
FoamFile
{
    version     2.0;
    format      ascii;
    arch        "LSB;label=32;scalar=64";
    class       volScalarField;
    location    "0.15";
    object      T;
}
// * * * * * * * * * * * * * * * * * * * * * * * * * * * * * * * * * * * * * //

dimensions      [0 0 0 1 0 0 0];

internalField   nonuniform List<scalar> 
100
(
3.09213
3.19293
3.30843
3.41028
3.43077
3.3437
3.28921
3.26642
3.13852
2.50137
0.938646
0.916273
0.898799
0.88017
0.860617
0.840414
0.819785
0.798956
0.778157
0.757608
0.737514
0.718055
0.699382
0.681615
0.664841
0.649126
0.634514
0.621038
0.608736
0.597664
0.587927
0.579723
0.573378
0.569271
0.567458
0.567163
0.567927
0.570774
0.576725
0.587787
0.60704
0.636835
0.675729
0.717942
0.756682
0.787611
0.80964
0.823952
0.832232
0.835559
0.835542
0.832223
0.823953
0.809642
0.787612
0.756682
0.717942
0.675729
0.636835
0.60704
0.587787
0.576725
0.570774
0.567927
0.567163
0.567458
0.569271
0.573378
0.579723
0.587927
0.597664
0.608736
0.621038
0.634514
0.649126
0.664841
0.681615
0.699382
0.718055
0.737514
0.757608
0.778157
0.798956
0.819785
0.840414
0.860617
0.88017
0.898798
0.916284
0.938548
2.49831
3.13615
3.26485
3.29016
3.34635
3.43066
3.41413
3.31413
3.18978
3.08748
)
;

boundaryField
{
    sides
    {
        type            zeroGradient;
    }
    empty1
    {
        type            empty;
    }
    empty2
    {
        type            empty;
    }
}


// ************************************************************************* //
