/*--------------------------------*- C++ -*----------------------------------*\
| =========                 |                                                 |
| \\      /  F ield         | OpenFOAM: The Open Source CFD Toolbox           |
|  \\    /   O peration     | Version:  2412                                  |
|   \\  /    A nd           | Website:  www.openfoam.com                      |
|    \\/     M anipulation  |                                                 |
\*---------------------------------------------------------------------------*/
FoamFile
{
    version     2.0;
    format      ascii;
    arch        "LSB;label=32;scalar=64";
    class       volVectorField;
    location    "0.15";
    object      U;
}
// * * * * * * * * * * * * * * * * * * * * * * * * * * * * * * * * * * * * * //

dimensions      [0 1 -1 0 0 0 0];

internalField   nonuniform List<vector> 
100
(
(0.00449672 0 0)
(-0.000793351 0 0)
(-0.024576 0 0)
(-0.0102925 0 0)
(0.0172366 0 0)
(-0.0162431 0 0)
(-0.00417851 0 0)
(0.0500882 0 0)
(-0.0131528 0 0)
(-0.810481 0 0)
(-1.87979 0 0)
(-1.83684 0 0)
(-1.80287 0 0)
(-1.76269 0 0)
(-1.72051 0 0)
(-1.67589 0 0)
(-1.62918 0 0)
(-1.58059 0 0)
(-1.53031 0 0)
(-1.47853 0 0)
(-1.42537 0 0)
(-1.37098 0 0)
(-1.31547 0 0)
(-1.25896 0 0)
(-1.20156 0 0)
(-1.14339 0 0)
(-1.08454 0 0)
(-1.02514 0 0)
(-0.965326 0 0)
(-0.905232 0 0)
(-0.845038 0 0)
(-0.784958 0 0)
(-0.725261 0 0)
(-0.666277 0 0)
(-0.608418 0 0)
(-0.55219 0 0)
(-0.498127 0 0)
(-0.446643 0 0)
(-0.398015 0 0)
(-0.352276 0 0)
(-0.309113 0 0)
(-0.267883 0 0)
(-0.227974 0 0)
(-0.189294 0 0)
(-0.152412 0 0)
(-0.118494 0 0)
(-0.0883752 0 0)
(-0.0612245 0 0)
(-0.034973 0 0)
(-0.0143343 0 0)
(0.014292 0 0)
(0.0350161 0 0)
(0.0612204 0 0)
(0.0883775 0 0)
(0.118495 0 0)
(0.152412 0 0)
(0.189294 0 0)
(0.227974 0 0)
(0.267883 0 0)
(0.309113 0 0)
(0.352276 0 0)
(0.398015 0 0)
(0.446643 0 0)
(0.498127 0 0)
(0.55219 0 0)
(0.608418 0 0)
(0.666277 0 0)
(0.725261 0 0)
(0.784958 0 0)
(0.845038 0 0)
(0.905232 0 0)
(0.965326 0 0)
(1.02514 0 0)
(1.08454 0 0)
(1.14339 0 0)
(1.20156 0 0)
(1.25896 0 0)
(1.31547 0 0)
(1.37098 0 0)
(1.42537 0 0)
(1.47853 0 0)
(1.53031 0 0)
(1.58059 0 0)
(1.62918 0 0)
(1.67589 0 0)
(1.72051 0 0)
(1.76269 0 0)
(1.80287 0 0)
(1.83684 0 0)
(1.87987 0 0)
(0.813586 0 0)
(0.014442 0 0)
(-0.05074 0 0)
(0.00317697 0 0)
(0.0155387 0 0)
(-0.0144771 0 0)
(0.0101606 0 0)
(0.0253005 0 0)
(-0.000428144 0 0)
(-0.003677 0 0)
)
;

boundaryField
{
    sides
    {
        type            fixedValue;
        value           uniform (0 0 0);
    }
    empty1
    {
        type            empty;
    }
    empty2
    {
        type            empty;
    }
}


// ************************************************************************* //
