/*--------------------------------*- C++ -*----------------------------------*\
| =========                 |                                                 |
| \\      /  F ield         | OpenFOAM: The Open Source CFD Toolbox           |
|  \\    /   O peration     | Version:  2406                                  |
|   \\  /    A nd           | Website:  www.openfoam.com                      |
|    \\/     M anipulation  |                                                 |
\*---------------------------------------------------------------------------*/
FoamFile
{
    version     2.0;
    format      ascii;
    arch        "LSB;label=32;scalar=64";
    class       volScalarField;
    location    "0.25";
    object      p;
}
// * * * * * * * * * * * * * * * * * * * * * * * * * * * * * * * * * * * * * //

dimensions      [1 -1 -2 0 0 0 0];

internalField   nonuniform List<scalar> 
200
(
1
1
1
1
1
1
1
1
1
0.999999
0.999999
0.999998
0.999997
0.999995
0.99999
0.999984
0.999972
0.999954
0.999924
0.999877
0.999805
0.999695
0.999532
0.999294
0.998952
0.998472
0.997809
0.996914
0.995727
0.994184
0.992218
0.989759
0.986743
0.983107
0.978802
0.973787
0.968038
0.961543
0.954304
0.946338
0.937674
0.928349
0.918408
0.907902
0.896885
0.885412
0.873537
0.861315
0.848796
0.836028
0.823058
0.809927
0.796673
0.78333
0.769932
0.756505
0.743075
0.729665
0.716295
0.702983
0.689745
0.676594
0.663544
0.650605
0.637786
0.625095
0.612541
0.600128
0.587862
0.575748
0.56379
0.551991
0.540353
0.528879
0.517571
0.50643
0.495457
0.484653
0.474019
0.463554
0.453261
0.443138
0.433186
0.423406
0.413799
0.404367
0.395111
0.386035
0.377146
0.368453
0.359969
0.351717
0.343727
0.33605
0.32876
0.321967
0.315829
0.310555
0.306387
0.303525
0.301999
0.301568
0.301773
0.302163
0.302483
0.302673
0.302769
0.302816
0.302844
0.302864
0.302883
0.3029
0.302917
0.302934
0.302949
0.302964
0.302978
0.302991
0.303003
0.303015
0.303025
0.303035
0.303044
0.303052
0.30306
0.303067
0.303074
0.30308
0.303087
0.303093
0.3031
0.303108
0.303116
0.303126
0.303136
0.303147
0.303157
0.303167
0.303176
0.303182
0.303185
0.303185
0.30318
0.303172
0.303161
0.303147
0.303131
0.303115
0.303102
0.303091
0.303084
0.303082
0.303083
0.303088
0.303094
0.303101
0.303108
0.303114
0.303118
0.303122
0.303125
0.303127
0.303128
0.303128
0.303128
0.303127
0.303126
0.303124
0.30312
0.303115
0.303108
0.303096
0.303078
0.303049
0.303003
0.302928
0.302805
0.302603
0.302273
0.301731
0.300841
0.299377
0.296971
0.293012
0.286499
0.27577
0.258047
0.228988
0.186613
0.142973
0.115699
0.104765
0.10135
0.100375
0.100104
0.100029
0.100008
0.100002
0.100001
0.1
)
;

boundaryField
{
    sides
    {
        type            zeroGradient;
    }
    empty1
    {
        type            empty;
    }
    empty2
    {
        type            empty;
    }
}


// ************************************************************************* //
