/*--------------------------------*- C++ -*----------------------------------*\
| =========                 |                                                 |
| \\      /  F ield         | OpenFOAM: The Open Source CFD Toolbox           |
|  \\    /   O peration     | Version:  2406                                  |
|   \\  /    A nd           | Website:  www.openfoam.com                      |
|    \\/     M anipulation  |                                                 |
\*---------------------------------------------------------------------------*/
FoamFile
{
    version     2.0;
    format      ascii;
    arch        "LSB;label=32;scalar=64";
    class       volScalarField;
    location    "0.25";
    object      rho;
}
// * * * * * * * * * * * * * * * * * * * * * * * * * * * * * * * * * * * * * //

dimensions      [1 -3 0 0 0 0 0];

internalField   nonuniform List<scalar> 
200
(
0.999943
0.999943
0.999943
0.999943
0.999943
0.999943
0.999943
0.999943
0.999943
0.999943
0.999943
0.999942
0.999941
0.99994
0.999937
0.999932
0.999924
0.999911
0.99989
0.999857
0.999807
0.99973
0.999615
0.999447
0.999207
0.998868
0.998401
0.997768
0.996929
0.995837
0.994443
0.992698
0.990553
0.987963
0.98489
0.981303
0.97718
0.972511
0.967293
0.961535
0.955252
0.948468
0.941211
0.933513
0.92541
0.916938
0.908134
0.899034
0.889672
0.880082
0.870295
0.860339
0.850243
0.840029
0.829721
0.819338
0.8089
0.798423
0.787922
0.77741
0.766899
0.756401
0.745925
0.735479
0.725072
0.71471
0.7044
0.694147
0.683956
0.673831
0.663777
0.653796
0.643893
0.634069
0.624327
0.61467
0.6051
0.595618
0.586225
0.576925
0.567717
0.558604
0.549587
0.540667
0.531849
0.523133
0.514523
0.506026
0.497647
0.489397
0.481292
0.473353
0.465615
0.458128
0.450967
0.444245
0.438125
0.43282
0.428585
0.425638
0.424032
0.423545
0.423718
0.424088
0.424389
0.424557
0.424627
0.424645
0.424641
0.424628
0.424611
0.424591
0.424569
0.424544
0.424515
0.424483
0.424447
0.424406
0.424361
0.42431
0.424254
0.42419
0.42412
0.424041
0.423952
0.423852
0.423739
0.42361
0.423459
0.423277
0.423044
0.422726
0.422267
0.421581
0.420548
0.419009
0.416777
0.413644
0.409406
0.40389
0.396985
0.388668
0.379032
0.368286
0.356751
0.34483
0.332959
0.321566
0.311013
0.301571
0.293399
0.28655
0.280984
0.276594
0.273232
0.27073
0.268922
0.267655
0.266793
0.266227
0.265869
0.265653
0.265531
0.265468
0.265441
0.265434
0.265438
0.265447
0.265457
0.265466
0.265473
0.265475
0.265472
0.265461
0.265438
0.265394
0.26532
0.265194
0.264984
0.264638
0.264067
0.263126
0.261578
0.259033
0.254847
0.247959
0.236592
0.217842
0.189616
0.158654
0.137825
0.12898
0.126133
0.125311
0.125081
0.125017
0.125
0.124995
0.124993
0.124993
)
;

boundaryField
{
    sides
    {
        type            calculated;
        value           nonuniform List<scalar> 2(0.124993 0.999943);
    }
    empty1
    {
        type            empty;
    }
    empty2
    {
        type            empty;
    }
}


// ************************************************************************* //
