/*--------------------------------*- C++ -*----------------------------------*\
| =========                 |                                                 |
| \\      /  F ield         | OpenFOAM: The Open Source CFD Toolbox           |
|  \\    /   O peration     | Version:  2406                                  |
|   \\  /    A nd           | Website:  www.openfoam.com                      |
|    \\/     M anipulation  |                                                 |
\*---------------------------------------------------------------------------*/
FoamFile
{
    version     2.0;
    format      ascii;
    arch        "LSB;label=32;scalar=64";
    class       volScalarField;
    location    "0.25";
    object      T;
}
// * * * * * * * * * * * * * * * * * * * * * * * * * * * * * * * * * * * * * //

dimensions      [0 0 0 1 0 0 0];

internalField   nonuniform List<scalar> 
200
(
2.5
2.5
2.5
2.5
2.5
2.5
2.5
2.5
2.5
2.5
2.5
2.5
2.5
2.5
2.49999
2.49999
2.49998
2.49997
2.49994
2.49991
2.49985
2.49977
2.49965
2.49947
2.49922
2.49887
2.49838
2.49772
2.49684
2.49571
2.49426
2.49246
2.49024
2.48757
2.48441
2.48071
2.47647
2.47166
2.46629
2.46035
2.45386
2.44683
2.4393
2.43128
2.4228
2.41391
2.40462
2.39498
2.385
2.37472
2.36417
2.35338
2.34235
2.33113
2.31972
2.30815
2.29643
2.28458
2.27261
2.26053
2.24836
2.2361
2.22377
2.21137
2.19892
2.18641
2.17386
2.16126
2.14864
2.13598
2.1233
2.1106
2.09788
2.08514
2.0724
2.05965
2.04689
2.03413
2.02137
2.00862
1.99587
1.98313
1.9704
1.95768
1.94499
1.93232
1.91968
1.90708
1.89454
1.88207
1.8697
1.85747
1.84545
1.83372
1.82243
1.81177
1.80206
1.79369
1.7871
1.78266
1.78042
1.77992
1.78041
1.78115
1.78177
1.78219
1.78246
1.78266
1.78284
1.78301
1.78319
1.78338
1.78357
1.78378
1.78399
1.78421
1.78444
1.78469
1.78496
1.78524
1.78554
1.78586
1.78621
1.78659
1.78701
1.78747
1.78799
1.78857
1.78925
1.79006
1.79109
1.79248
1.79448
1.79745
1.80193
1.80861
1.81836
1.83219
1.85121
1.87653
1.90919
1.95004
1.99959
2.05788
2.12434
2.19768
2.27591
2.35643
2.43627
2.51246
2.58238
2.64408
2.69647
2.73931
2.77308
2.79876
2.81764
2.83104
2.84023
2.8463
2.85016
2.85249
2.85382
2.8545
2.85479
2.85485
2.85479
2.85468
2.85454
2.8544
2.85426
2.85412
2.85398
2.85383
2.85364
2.8534
2.85304
2.8525
2.85164
2.85026
2.84799
2.84427
2.8381
2.82779
2.81034
2.78023
2.72656
2.62777
2.46026
2.25278
2.09854
2.03054
2.00868
2.00241
2.00067
2.00018
2.00005
2.00001
2
2
)
;

boundaryField
{
    sides
    {
        type            zeroGradient;
    }
    empty1
    {
        type            empty;
    }
    empty2
    {
        type            empty;
    }
}


// ************************************************************************* //
