/*--------------------------------*- C++ -*----------------------------------*\
| =========                 |                                                 |
| \\      /  F ield         | OpenFOAM: The Open Source CFD Toolbox           |
|  \\    /   O peration     | Version:  2406                                  |
|   \\  /    A nd           | Website:  www.openfoam.com                      |
|    \\/     M anipulation  |                                                 |
\*---------------------------------------------------------------------------*/
FoamFile
{
    version     2.0;
    format      ascii;
    arch        "LSB;label=32;scalar=64";
    class       volVectorField;
    location    "0.25";
    object      U;
}
// * * * * * * * * * * * * * * * * * * * * * * * * * * * * * * * * * * * * * //

dimensions      [0 1 -1 0 0 0 0];

internalField   nonuniform List<vector> 
200
(
(4.76043e-10 0 0)
(1.68525e-09 0 0)
(3.8117e-09 0 0)
(7.94657e-09 0 0)
(1.61138e-08 0 0)
(3.21275e-08 0 0)
(6.31231e-08 0 0)
(1.22262e-07 0 0)
(2.33439e-07 0 0)
(4.39313e-07 0 0)
(8.1475e-07 0 0)
(1.48886e-06 0 0)
(2.68031e-06 0 0)
(4.75273e-06 0 0)
(8.29945e-06 0 0)
(1.42699e-05 0 0)
(2.41533e-05 0 0)
(4.02376e-05 0 0)
(6.59632e-05 0 0)
(0.00010639 0 0)
(0.000168788 0 0)
(0.00026336 0 0)
(0.00040406 0 0)
(0.000609483 0 0)
(0.000903737 0 0)
(0.00131718 0 0)
(0.00188691 0 0)
(0.00265684 0 0)
(0.00367719 0 0)
(0.0050035 0 0)
(0.00669483 0 0)
(0.00881156 0 0)
(0.0114128 0 0)
(0.0145538 0 0)
(0.0182832 0 0)
(0.0226411 0 0)
(0.0276576 0 0)
(0.0333519 0 0)
(0.0397325 0 0)
(0.0467977 0 0)
(0.0545363 0 0)
(0.0629299 0 0)
(0.0719533 0 0)
(0.0815773 0 0)
(0.0917691 0 0)
(0.102494 0 0)
(0.113718 0 0)
(0.125404 0 0)
(0.137521 0 0)
(0.150033 0 0)
(0.162911 0 0)
(0.176126 0 0)
(0.189651 0 0)
(0.20346 0 0)
(0.217531 0 0)
(0.231842 0 0)
(0.246376 0 0)
(0.261113 0 0)
(0.276039 0 0)
(0.291138 0 0)
(0.306399 0 0)
(0.321808 0 0)
(0.337356 0 0)
(0.353033 0 0)
(0.36883 0 0)
(0.384738 0 0)
(0.400752 0 0)
(0.416863 0 0)
(0.433067 0 0)
(0.449357 0 0)
(0.465729 0 0)
(0.482178 0 0)
(0.4987 0 0)
(0.515291 0 0)
(0.531948 0 0)
(0.548667 0 0)
(0.565445 0 0)
(0.582279 0 0)
(0.599166 0 0)
(0.616103 0 0)
(0.633088 0 0)
(0.650117 0 0)
(0.667187 0 0)
(0.684293 0 0)
(0.70143 0 0)
(0.718591 0 0)
(0.735767 0 0)
(0.752947 0 0)
(0.770112 0 0)
(0.787236 0 0)
(0.804283 0 0)
(0.821195 0 0)
(0.837889 0 0)
(0.854237 0 0)
(0.870045 0 0)
(0.885025 0 0)
(0.898765 0 0)
(0.910712 0 0)
(0.920232 0 0)
(0.926788 0 0)
(0.930261 0 0)
(0.931206 0 0)
(0.930697 0 0)
(0.929782 0 0)
(0.929041 0 0)
(0.928604 0 0)
(0.928384 0 0)
(0.928276 0 0)
(0.928214 0 0)
(0.928167 0 0)
(0.928125 0 0)
(0.928084 0 0)
(0.928045 0 0)
(0.928008 0 0)
(0.927972 0 0)
(0.927939 0 0)
(0.927908 0 0)
(0.927879 0 0)
(0.927852 0 0)
(0.927827 0 0)
(0.927804 0 0)
(0.927784 0 0)
(0.927765 0 0)
(0.927749 0 0)
(0.927734 0 0)
(0.927722 0 0)
(0.927711 0 0)
(0.927702 0 0)
(0.927698 0 0)
(0.927699 0 0)
(0.927711 0 0)
(0.927737 0 0)
(0.927785 0 0)
(0.927865 0 0)
(0.927984 0 0)
(0.928152 0 0)
(0.928375 0 0)
(0.928654 0 0)
(0.928987 0 0)
(0.929364 0 0)
(0.929771 0 0)
(0.930187 0 0)
(0.930588 0 0)
(0.930944 0 0)
(0.931228 0 0)
(0.931414 0 0)
(0.93148 0 0)
(0.931416 0 0)
(0.931224 0 0)
(0.930919 0 0)
(0.930529 0 0)
(0.930088 0 0)
(0.929634 0 0)
(0.929199 0 0)
(0.928807 0 0)
(0.928473 0 0)
(0.928201 0 0)
(0.927988 0 0)
(0.927829 0 0)
(0.927713 0 0)
(0.927632 0 0)
(0.927577 0 0)
(0.92754 0 0)
(0.927516 0 0)
(0.927499 0 0)
(0.927487 0 0)
(0.927478 0 0)
(0.927468 0 0)
(0.927457 0 0)
(0.927442 0 0)
(0.927419 0 0)
(0.927386 0 0)
(0.927333 0 0)
(0.927249 0 0)
(0.927114 0 0)
(0.926895 0 0)
(0.926538 0 0)
(0.925955 0 0)
(0.924998 0 0)
(0.923425 0 0)
(0.920834 0 0)
(0.91656 0 0)
(0.909486 0 0)
(0.897729 0 0)
(0.878039 0 0)
(0.844638 0 0)
(0.786618 0 0)
(0.682712 0 0)
(0.507459 0 0)
(0.286662 0 0)
(0.116582 0 0)
(0.0375035 0 0)
(0.0108784 0 0)
(0.00304747 0 0)
(0.0008448 0 0)
(0.000233473 0 0)
(6.44579e-05 0 0)
(1.77658e-05 0 0)
(4.80835e-06 0 0)
(9.89448e-07 0 0)
)
;

boundaryField
{
    sides
    {
        type            fixedValue;
        value           uniform (0 0 0);
    }
    empty1
    {
        type            empty;
    }
    empty2
    {
        type            empty;
    }
}


// ************************************************************************* //
