x,T,p,U_0,U_1,U_2
0.000625,1,0.4,-2,0,0
0.001875,1,0.4,-2,0,0
0.003125,1,0.4,-2,0,0
0.004375,1,0.4,-2,0,0
0.005625,1,0.4,-2,0,0
0.006875,1,0.4,-2,0,0
0.008125,1,0.4,-2,0,0
0.009375,1,0.4,-2,0,0
0.010625,1,0.4,-2,0,0
0.011875,1,0.4,-2,0,0
0.013125,1,0.4,-2,0,0
0.014375,1,0.4,-2,0,0
0.015625,1,0.4,-2,0,0
0.016875,1,0.4,-2,0,0
0.018125,1,0.4,-2,0,0
0.019375,1,0.4,-2,0,0
0.020625,1,0.4,-2,0,0
0.021875,1,0.4,-2,0,0
0.023125,1,0.4,-2,0,0
0.024375,1,0.4,-2,0,0
0.025625,1,0.4,-2,0,0
0.026875,1,0.4,-2,0,0
0.028125,1,0.4,-2,0,0
0.029375,1,0.4,-2,0,0
0.030625,1,0.4,-2,0,0
0.031875,1,0.4,-2,0,0
0.033125,1,0.4,-2,0,0
0.034375,1,0.4,-2,0,0
0.035625,1,0.4,-2,0,0
0.036875,1,0.4,-2,0,0
0.038125,1,0.4,-2,0,0
0.039375,1,0.4,-2,0,0
0.040625,1,0.4,-2,0,0
0.041875,1,0.4,-2,0,0
0.043125,1,0.4,-2,0,0
0.044375,1,0.4,-2,0,0
0.045625,1,0.4,-2,0,0
0.046875,1,0.4,-2,0,0
0.048125,1,0.4,-2,0,0
0.049375,1,0.4,-2,0,0
0.050625,1,0.4,-2,0,0
0.051875,1,0.4,-2,0,0
0.053125,1,0.4,-2,0,0
0.054375,1,0.4,-2,0,0
0.055625,1,0.4,-2,0,0
0.056875,1,0.4,-2,0,0
0.058125,1,0.4,-2,0,0
0.059375,1,0.4,-2,0,0
0.060625,1,0.4,-2,0,0
0.061875,1,0.4,-2,0,0
0.063125,1,0.4,-2,0,0
0.064375,1,0.4,-2,0,0
0.065625,1,0.4,-2,0,0
0.066875,1,0.4,-2,0,0
0.068125,1,0.4,-2,0,0
0.069375,1,0.4,-2,0,0
0.070625,1,0.4,-2,0,0
0.071875,1,0.4,-2,0,0
0.073125,1,0.4,-2,0,0
0.074375,1,0.4,-2,0,0
0.075625,1,0.4,-2,0,0
0.076875,1,0.4,-2,0,0
0.078125,1,0.4,-2,0,0
0.079375,1,0.4,-2,0,0
0.080625,1,0.4,-2,0,0
0.081875,1,0.4,-2,0,0
0.083125,1,0.4,-2,0,0
0.084375,1,0.4,-2,0,0
0.085625,1,0.4,-2,0,0
0.086875,1,0.4,-2,0,0
0.088125,1,0.4,-2,0,0
0.089375,1,0.4,-2,0,0
0.090625,1,0.4,-2,0,0
0.091875,1,0.4,-2,0,0
0.093125,1,0.4,-2,0,0
0.094375,1,0.4,-2,0,0
0.095625,1,0.4,-2,0,0
0.096875,1,0.4,-2,0,0
0.098125,1,0.4,-2,0,0
0.099375,1,0.4,-2,0,0
0.100625,1,0.4,-2,0,0
0.101875,1,0.4,-2,0,0
0.103125,1,0.4,-2,0,0
0.104375,1,0.4,-2,0,0
0.105625,1,0.4,-2,0,0
0.106875,1,0.4,-2,0,0
0.108125,1,0.4,-2,0,0
0.109375,1,0.4,-2,0,0
0.110625,1,0.4,-2,0,0
0.111875,1,0.4,-2,0,0
0.113125,1,0.4,-2,0,0
0.114375,1,0.4,-2,0,0
0.115625,1,0.4,-2,0,0
0.116875,1,0.4,-2,0,0
0.118125,1,0.4,-2,0,0
0.119375,1,0.4,-2,0,0
0.120625,1,0.4,-2,0,0
0.121875,1,0.4,-2,0,0
0.123125,1,0.4,-2,0,0
0.124375,1,0.4,-2,0,0
0.125625,1,0.4,-2,0,0
0.126875,1,0.4,-2,0,0
0.128125,1,0.4,-2,0,0
0.129375,1,0.4,-2,0,0
0.130625,1,0.4,-2,0,0
0.131875,1,0.4,-2,0,0
0.133125,1,0.4,-2,0,0
0.134375,1,0.4,-2,0,0
0.135625,1,0.4,-2,0,0
0.136875,1,0.4,-2,0,0
0.138125,1,0.4,-2,0,0
0.139375,1,0.4,-2,0,0
0.140625,1,0.4,-2,0,0
0.141875,1,0.4,-2,0,0
0.143125,1,0.4,-2,0,0
0.144375,1,0.4,-2,0,0
0.145625,1,0.4,-2,0,0
0.146875,1,0.4,-2,0,0
0.148125,1,0.4,-2,0,0
0.149375,1,0.4,-2,0,0
0.150625,1,0.4,-2,0,0
0.151875,1,0.4,-2,0,0
0.153125,1,0.4,-2,0,0
0.154375,1,0.4,-2,0,0
0.155625,1,0.4,-2,0,0
0.156875,1,0.4,-2,0,0
0.158125,1,0.4,-2,0,0
0.159375,1,0.4,-2,0,0
0.160625,1,0.4,-2,0,0
0.161875,1,0.4,-2,0,0
0.163125,1,0.4,-2,0,0
0.164375,1,0.4,-2,0,0
0.165625,1,0.4,-2,0,0
0.166875,1,0.4,-2,0,0
0.168125,1,0.4,-2,0,0
0.169375,1,0.4,-2,0,0
0.170625,1,0.4,-2,0,0
0.171875,1,0.4,-2,0,0
0.173125,1,0.4,-2,0,0
0.174375,1,0.4,-2,0,0
0.175625,1,0.4,-2,0,0
0.176875,1,0.4,-2,0,0
0.178125,1,0.4,-2,0,0
0.179375,1,0.4,-2,0,0
0.180625,1,0.4,-2,0,0
0.181875,1,0.4,-2,0,0
0.183125,1,0.4,-2,0,0
0.184375,1,0.4,-2,0,0
0.185625,1,0.4,-2,0,0
0.186875,1,0.4,-2,0,0
0.188125,1,0.4,-2,0,0
0.189375,1,0.4,-2,0,0
0.190625,1,0.4,-2,0,0
0.191875,1,0.4,-2,0,0
0.193125,1,0.4,-2,0,0
0.194375,1,0.4,-2,0,0
0.195625,1,0.4,-2,0,0
0.196875,1,0.4,-2,0,0
0.198125,1,0.4,-2,0,0
0.199375,1,0.4,-2,0,0
0.200625,1,0.4,-2,0,0
0.201875,1,0.4,-2,0,0
0.203125,1,0.4,-2,0,0
0.204375,1,0.4,-2,0,0
0.205625,1,0.4,-2,0,0
0.206875,1,0.4,-2,0,0
0.208125,1,0.4,-2,0,0
0.209375,1,0.4,-2,0,0
0.210625,1,0.4,-2,0,0
0.211875,1,0.4,-2,0,0
0.213125,1,0.4,-2,0,0
0.214375,1,0.4,-2,0,0
0.215625,1,0.4,-2,0,0
0.216875,1,0.4,-2,0,0
0.218125,1,0.4,-2,0,0
0.219375,1,0.4,-2,0,0
0.220625,1,0.4,-2,0,0
0.221875,1,0.4,-2,0,0
0.223125,1,0.4,-2,0,0
0.224375,1,0.4,-2,0,0
0.225625,1,0.4,-2,0,0
0.226875,1,0.4,-2,0,0
0.228125,1,0.4,-2,0,0
0.229375,1,0.4,-2,0,0
0.230625,1,0.4,-2,0,0
0.231875,1,0.4,-2,0,0
0.233125,1,0.4,-2,0,0
0.234375,1,0.4,-2,0,0
0.235625,1,0.4,-2,0,0
0.236875,1,0.4,-2,0,0
0.238125,1,0.4,-2,0,0
0.239375,1,0.4,-2,0,0
0.240625,1,0.4,-2,0,0
0.241875,1,0.4,-2,0,0
0.243125,1,0.4,-2,0,0
0.244375,1,0.4,-2,0,0
0.245625,1,0.4,-2,0,0
0.246875,1,0.4,-2,0,0
0.248125,1,0.4,-2,0,0
0.249375,1,0.4,-2,0,0
0.250625,1,0.4,-2,0,0
0.251875,1,0.4,-2,0,0
0.253125,1,0.4,-2,0,0
0.254375,1,0.4,-2,0,0
0.255625,1,0.4,-2,0,0
0.256875,1,0.4,-2,0,0
0.258125,1,0.4,-2,0,0
0.259375,1,0.4,-2,0,0
0.260625,1,0.4,-2,0,0
0.261875,1,0.4,-2,0,0
0.263125,1,0.4,-2,0,0
0.264375,1,0.4,-2,0,0
0.265625,1,0.4,-2,0,0
0.266875,1,0.4,-2,0,0
0.268125,1,0.4,-2,0,0
0.269375,1,0.4,-2,0,0
0.270625,1,0.4,-2,0,0
0.271875,1,0.4,-2,0,0
0.273125,1,0.4,-2,0,0
0.274375,1,0.4,-2,0,0
0.275625,1,0.4,-2,0,0
0.276875,1,0.4,-2,0,0
0.278125,1,0.4,-2,0,0
0.279375,1,0.4,-2,0,0
0.280625,1,0.4,-2,0,0
0.281875,1,0.4,-2,0,0
0.283125,1,0.4,-2,0,0
0.284375,1,0.4,-2,0,0
0.285625,1,0.4,-2,0,0
0.286875,1,0.4,-2,0,0
0.288125,1,0.4,-2,0,0
0.289375,1,0.4,-2,0,0
0.290625,1,0.4,-2,0,0
0.291875,1,0.4,-2,0,0
0.293125,1,0.4,-2,0,0
0.294375,1,0.4,-2,0,0
0.295625,1,0.4,-2,0,0
0.296875,1,0.4,-2,0,0
0.298125,1,0.4,-2,0,0
0.299375,1,0.4,-2,0,0
0.300625,1,0.4,-2,0,0
0.301875,1,0.4,-2,0,0
0.303125,1,0.4,-2,0,0
0.304375,1,0.4,-2,0,0
0.305625,1,0.4,-2,0,0
0.306875,1,0.4,-2,0,0
0.308125,1,0.4,-2,0,0
0.309375,1,0.4,-2,0,0
0.310625,1,0.4,-2,0,0
0.311875,1,0.4,-2,0,0
0.313125,1,0.4,-2,0,0
0.314375,1,0.4,-2,0,0
0.315625,1,0.4,-2,0,0
0.316875,1,0.4,-2,0,0
0.318125,1,0.4,-2,0,0
0.319375,1,0.4,-2,0,0
0.320625,1,0.4,-2,0,0
0.321875,1,0.4,-2,0,0
0.323125,1,0.4,-2,0,0
0.324375,1,0.4,-2,0,0
0.325625,1,0.4,-2,0,0
0.326875,1,0.4,-2,0,0
0.328125,1,0.4,-2,0,0
0.329375,1,0.4,-2,0,0
0.330625,1,0.4,-2,0,0
0.331875,1,0.4,-2,0,0
0.333125,1,0.4,-2,0,0
0.334375,1,0.4,-2,0,0
0.335625,1,0.4,-2,0,0
0.336875,1,0.4,-2,0,0
0.338125,1,0.4,-2,0,0
0.339375,1,0.4,-2,0,0
0.340625,1,0.4,-2,0,0
0.341875,1,0.4,-2,0,0
0.343125,1,0.4,-2,0,0
0.344375,1,0.4,-2,0,0
0.345625,1,0.4,-2,0,0
0.346875,1,0.4,-2,0,0
0.348125,1,0.4,-2,0,0
0.349375,1,0.4,-2,0,0
0.350625,1,0.4,-2,0,0
0.351875,1,0.4,-2,0,0
0.353125,1,0.4,-2,0,0
0.354375,1,0.4,-2,0,0
0.355625,1,0.4,-2,0,0
0.356875,1,0.4,-2,0,0
0.358125,1,0.4,-2,0,0
0.359375,1,0.4,-2,0,0
0.360625,1,0.4,-2,0,0
0.361875,1,0.4,-2,0,0
0.363125,1,0.4,-2,0,0
0.364375,1,0.4,-2,0,0
0.365625,1,0.4,-2,0,0
0.366875,1,0.4,-2,0,0
0.368125,1,0.4,-2,0,0
0.369375,1,0.4,-2,0,0
0.370625,1,0.4,-2,0,0
0.371875,1,0.4,-2,0,0
0.373125,1,0.4,-2,0,0
0.374375,1,0.4,-2,0,0
0.375625,1,0.4,-2,0,0
0.376875,1,0.4,-2,0,0
0.378125,1,0.4,-2,0,0
0.379375,1,0.4,-2,0,0
0.380625,1,0.4,-2,0,0
0.381875,1,0.4,-2,0,0
0.383125,1,0.4,-2,0,0
0.384375,1,0.4,-2,0,0
0.385625,1,0.4,-2,0,0
0.386875,1,0.4,-2,0,0
0.388125,1,0.4,-2,0,0
0.389375,1,0.4,-2,0,0
0.390625,1,0.4,-2,0,0
0.391875,1,0.4,-2,0,0
0.393125,1,0.4,-2,0,0
0.394375,1,0.4,-2,0,0
0.395625,1,0.4,-2,0,0
0.396875,1,0.4,-2,0,0
0.398125,1,0.4,-2,0,0
0.399375,1,0.4,-2,0,0
0.400625,1,0.4,-2,0,0
0.401875,1,0.4,-2,0,0
0.403125,1,0.4,-2,0,0
0.404375,1,0.4,-2,0,0
0.405625,1,0.4,-2,0,0
0.406875,1,0.4,-2,0,0
0.408125,1,0.4,-2,0,0
0.409375,1,0.4,-2,0,0
0.410625,1,0.4,-2,0,0
0.411875,1,0.4,-2,0,0
0.413125,1,0.4,-2,0,0
0.414375,1,0.4,-2,0,0
0.415625,1,0.4,-2,0,0
0.416875,1,0.4,-2,0,0
0.418125,1,0.4,-2,0,0
0.419375,1,0.4,-2,0,0
0.420625,1,0.4,-2,0,0
0.421875,1,0.4,-2,0,0
0.423125,1,0.4,-2,0,0
0.424375,1,0.4,-2,0,0
0.425625,1,0.4,-2,0,0
0.426875,1,0.4,-2,0,0
0.428125,1,0.4,-2,0,0
0.429375,1,0.4,-2,0,0
0.430625,1,0.4,-2,0,0
0.431875,1,0.4,-2,0,0
0.433125,1,0.4,-2,0,0
0.434375,1,0.4,-2,0,0
0.435625,1,0.4,-2,0,0
0.436875,1,0.4,-2,0,0
0.438125,1,0.4,-2,0,0
0.439375,1,0.4,-2,0,0
0.440625,1,0.4,-2,0,0
0.441875,1,0.4,-2,0,0
0.443125,1,0.4,-2,0,0
0.444375,1,0.4,-2,0,0
0.445625,1,0.4,-2,0,0
0.446875,1,0.4,-2,0,0
0.448125,1,0.4,-2,0,0
0.449375,1,0.4,-2,0,0
0.450625,1,0.4,-2,0,0
0.451875,1,0.4,-2,0,0
0.453125,1,0.4,-2,0,0
0.454375,1,0.4,-2,0,0
0.455625,1,0.4,-2,0,0
0.456875,1,0.4,-2,0,0
0.458125,1,0.4,-2,0,0
0.459375,1,0.4,-2,0,0
0.460625,1,0.4,-2,0,0
0.461875,1,0.4,-2,0,0
0.463125,1,0.4,-2,0,0
0.464375,1,0.4,-2,0,0
0.465625,1,0.4,-2,0,0
0.466875,1,0.4,-2,0,0
0.468125,1,0.4,-2,0,0
0.469375,1,0.4,-2,0,0
0.470625,1,0.4,-2,0,0
0.471875,1,0.4,-2,0,0
0.473125,1,0.4,-2,0,0
0.474375,1,0.4,-2,0,0
0.475625,1,0.4,-2,0,0
0.476875,1,0.4,-2,0,0
0.478125,1,0.4,-2,0,0
0.479375,1,0.4,-2,0,0
0.480625,1,0.4,-2,0,0
0.481875,1,0.4,-2,0,0
0.483125,1,0.4,-2,0,0
0.484375,1,0.4,-2,0,0
0.485625,1,0.4,-2,0,0
0.486875,1,0.4,-2,0,0
0.488125,1,0.4,-2,0,0
0.489375,1,0.4,-2,0,0
0.490625,1,0.4,-2,0,0
0.491875,1,0.4,-2,0,0
0.493125,1,0.4,-2,0,0
0.494375,1,0.4,-2,0,0
0.495625,1,0.4,-2,0,0
0.496875,1,0.4,-2,0,0
0.498125,1,0.4,-2,0,0
0.499375,1,0.4,-2,0,0
0.500625,1,0.4,2,0,0
0.501875,1,0.4,2,0,0
0.503125,1,0.4,2,0,0
0.504375,1,0.4,2,0,0
0.505625,1,0.4,2,0,0
0.506875,1,0.4,2,0,0
0.508125,1,0.4,2,0,0
0.509375,1,0.4,2,0,0
0.510625,1,0.4,2,0,0
0.511875,1,0.4,2,0,0
0.513125,1,0.4,2,0,0
0.514375,1,0.4,2,0,0
0.515625,1,0.4,2,0,0
0.516875,1,0.4,2,0,0
0.518125,1,0.4,2,0,0
0.519375,1,0.4,2,0,0
0.520625,1,0.4,2,0,0
0.521875,1,0.4,2,0,0
0.523125,1,0.4,2,0,0
0.524375,1,0.4,2,0,0
0.525625,1,0.4,2,0,0
0.526875,1,0.4,2,0,0
0.528125,1,0.4,2,0,0
0.529375,1,0.4,2,0,0
0.530625,1,0.4,2,0,0
0.531875,1,0.4,2,0,0
0.533125,1,0.4,2,0,0
0.534375,1,0.4,2,0,0
0.535625,1,0.4,2,0,0
0.536875,1,0.4,2,0,0
0.538125,1,0.4,2,0,0
0.539375,1,0.4,2,0,0
0.540625,1,0.4,2,0,0
0.541875,1,0.4,2,0,0
0.543125,1,0.4,2,0,0
0.544375,1,0.4,2,0,0
0.545625,1,0.4,2,0,0
0.546875,1,0.4,2,0,0
0.548125,1,0.4,2,0,0
0.549375,1,0.4,2,0,0
0.550625,1,0.4,2,0,0
0.551875,1,0.4,2,0,0
0.553125,1,0.4,2,0,0
0.554375,1,0.4,2,0,0
0.555625,1,0.4,2,0,0
0.556875,1,0.4,2,0,0
0.558125,1,0.4,2,0,0
0.559375,1,0.4,2,0,0
0.560625,1,0.4,2,0,0
0.561875,1,0.4,2,0,0
0.563125,1,0.4,2,0,0
0.564375,1,0.4,2,0,0
0.565625,1,0.4,2,0,0
0.566875,1,0.4,2,0,0
0.568125,1,0.4,2,0,0
0.569375,1,0.4,2,0,0
0.570625,1,0.4,2,0,0
0.571875,1,0.4,2,0,0
0.573125,1,0.4,2,0,0
0.574375,1,0.4,2,0,0
0.575625,1,0.4,2,0,0
0.576875,1,0.4,2,0,0
0.578125,1,0.4,2,0,0
0.579375,1,0.4,2,0,0
0.580625,1,0.4,2,0,0
0.581875,1,0.4,2,0,0
0.583125,1,0.4,2,0,0
0.584375,1,0.4,2,0,0
0.585625,1,0.4,2,0,0
0.586875,1,0.4,2,0,0
0.588125,1,0.4,2,0,0
0.589375,1,0.4,2,0,0
0.590625,1,0.4,2,0,0
0.591875,1,0.4,2,0,0
0.593125,1,0.4,2,0,0
0.594375,1,0.4,2,0,0
0.595625,1,0.4,2,0,0
0.596875,1,0.4,2,0,0
0.598125,1,0.4,2,0,0
0.599375,1,0.4,2,0,0
0.600625,1,0.4,2,0,0
0.601875,1,0.4,2,0,0
0.603125,1,0.4,2,0,0
0.604375,1,0.4,2,0,0
0.605625,1,0.4,2,0,0
0.606875,1,0.4,2,0,0
0.608125,1,0.4,2,0,0
0.609375,1,0.4,2,0,0
0.610625,1,0.4,2,0,0
0.611875,1,0.4,2,0,0
0.613125,1,0.4,2,0,0
0.614375,1,0.4,2,0,0
0.615625,1,0.4,2,0,0
0.616875,1,0.4,2,0,0
0.618125,1,0.4,2,0,0
0.619375,1,0.4,2,0,0
0.620625,1,0.4,2,0,0
0.621875,1,0.4,2,0,0
0.623125,1,0.4,2,0,0
0.624375,1,0.4,2,0,0
0.625625,1,0.4,2,0,0
0.626875,1,0.4,2,0,0
0.628125,1,0.4,2,0,0
0.629375,1,0.4,2,0,0
0.630625,1,0.4,2,0,0
0.631875,1,0.4,2,0,0
0.633125,1,0.4,2,0,0
0.634375,1,0.4,2,0,0
0.635625,1,0.4,2,0,0
0.636875,1,0.4,2,0,0
0.638125,1,0.4,2,0,0
0.639375,1,0.4,2,0,0
0.640625,1,0.4,2,0,0
0.641875,1,0.4,2,0,0
0.643125,1,0.4,2,0,0
0.644375,1,0.4,2,0,0
0.645625,1,0.4,2,0,0
0.646875,1,0.4,2,0,0
0.648125,1,0.4,2,0,0
0.649375,1,0.4,2,0,0
0.650625,1,0.4,2,0,0
0.651875,1,0.4,2,0,0
0.653125,1,0.4,2,0,0
0.654375,1,0.4,2,0,0
0.655625,1,0.4,2,0,0
0.656875,1,0.4,2,0,0
0.658125,1,0.4,2,0,0
0.659375,1,0.4,2,0,0
0.660625,1,0.4,2,0,0
0.661875,1,0.4,2,0,0
0.663125,1,0.4,2,0,0
0.664375,1,0.4,2,0,0
0.665625,1,0.4,2,0,0
0.666875,1,0.4,2,0,0
0.668125,1,0.4,2,0,0
0.669375,1,0.4,2,0,0
0.670625,1,0.4,2,0,0
0.671875,1,0.4,2,0,0
0.673125,1,0.4,2,0,0
0.674375,1,0.4,2,0,0
0.675625,1,0.4,2,0,0
0.676875,1,0.4,2,0,0
0.678125,1,0.4,2,0,0
0.679375,1,0.4,2,0,0
0.680625,1,0.4,2,0,0
0.681875,1,0.4,2,0,0
0.683125,1,0.4,2,0,0
0.684375,1,0.4,2,0,0
0.685625,1,0.4,2,0,0
0.686875,1,0.4,2,0,0
0.688125,1,0.4,2,0,0
0.689375,1,0.4,2,0,0
0.690625,1,0.4,2,0,0
0.691875,1,0.4,2,0,0
0.693125,1,0.4,2,0,0
0.694375,1,0.4,2,0,0
0.695625,1,0.4,2,0,0
0.696875,1,0.4,2,0,0
0.698125,1,0.4,2,0,0
0.699375,1,0.4,2,0,0
0.700625,1,0.4,2,0,0
0.701875,1,0.4,2,0,0
0.703125,1,0.4,2,0,0
0.704375,1,0.4,2,0,0
0.705625,1,0.4,2,0,0
0.706875,1,0.4,2,0,0
0.708125,1,0.4,2,0,0
0.709375,1,0.4,2,0,0
0.710625,1,0.4,2,0,0
0.711875,1,0.4,2,0,0
0.713125,1,0.4,2,0,0
0.714375,1,0.4,2,0,0
0.715625,1,0.4,2,0,0
0.716875,1,0.4,2,0,0
0.718125,1,0.4,2,0,0
0.719375,1,0.4,2,0,0
0.720625,1,0.4,2,0,0
0.721875,1,0.4,2,0,0
0.723125,1,0.4,2,0,0
0.724375,1,0.4,2,0,0
0.725625,1,0.4,2,0,0
0.726875,1,0.4,2,0,0
0.728125,1,0.4,2,0,0
0.729375,1,0.4,2,0,0
0.730625,1,0.4,2,0,0
0.731875,1,0.4,2,0,0
0.733125,1,0.4,2,0,0
0.734375,1,0.4,2,0,0
0.735625,1,0.4,2,0,0
0.736875,1,0.4,2,0,0
0.738125,1,0.4,2,0,0
0.739375,1,0.4,2,0,0
0.740625,1,0.4,2,0,0
0.741875,1,0.4,2,0,0
0.743125,1,0.4,2,0,0
0.744375,1,0.4,2,0,0
0.745625,1,0.4,2,0,0
0.746875,1,0.4,2,0,0
0.748125,1,0.4,2,0,0
0.749375,1,0.4,2,0,0
0.750625,1,0.4,2,0,0
0.751875,1,0.4,2,0,0
0.753125,1,0.4,2,0,0
0.754375,1,0.4,2,0,0
0.755625,1,0.4,2,0,0
0.756875,1,0.4,2,0,0
0.758125,1,0.4,2,0,0
0.759375,1,0.4,2,0,0
0.760625,1,0.4,2,0,0
0.761875,1,0.4,2,0,0
0.763125,1,0.4,2,0,0
0.764375,1,0.4,2,0,0
0.765625,1,0.4,2,0,0
0.766875,1,0.4,2,0,0
0.768125,1,0.4,2,0,0
0.769375,1,0.4,2,0,0
0.770625,1,0.4,2,0,0
0.771875,1,0.4,2,0,0
0.773125,1,0.4,2,0,0
0.774375,1,0.4,2,0,0
0.775625,1,0.4,2,0,0
0.776875,1,0.4,2,0,0
0.778125,1,0.4,2,0,0
0.779375,1,0.4,2,0,0
0.780625,1,0.4,2,0,0
0.781875,1,0.4,2,0,0
0.783125,1,0.4,2,0,0
0.784375,1,0.4,2,0,0
0.785625,1,0.4,2,0,0
0.786875,1,0.4,2,0,0
0.788125,1,0.4,2,0,0
0.789375,1,0.4,2,0,0
0.790625,1,0.4,2,0,0
0.791875,1,0.4,2,0,0
0.793125,1,0.4,2,0,0
0.794375,1,0.4,2,0,0
0.795625,1,0.4,2,0,0
0.796875,1,0.4,2,0,0
0.798125,1,0.4,2,0,0
0.799375,1,0.4,2,0,0
0.800625,1,0.4,2,0,0
0.801875,1,0.4,2,0,0
0.803125,1,0.4,2,0,0
0.804375,1,0.4,2,0,0
0.805625,1,0.4,2,0,0
0.806875,1,0.4,2,0,0
0.808125,1,0.4,2,0,0
0.809375,1,0.4,2,0,0
0.810625,1,0.4,2,0,0
0.811875,1,0.4,2,0,0
0.813125,1,0.4,2,0,0
0.814375,1,0.4,2,0,0
0.815625,1,0.4,2,0,0
0.816875,1,0.4,2,0,0
0.818125,1,0.4,2,0,0
0.819375,1,0.4,2,0,0
0.820625,1,0.4,2,0,0
0.821875,1,0.4,2,0,0
0.823125,1,0.4,2,0,0
0.824375,1,0.4,2,0,0
0.825625,1,0.4,2,0,0
0.826875,1,0.4,2,0,0
0.828125,1,0.4,2,0,0
0.829375,1,0.4,2,0,0
0.830625,1,0.4,2,0,0
0.831875,1,0.4,2,0,0
0.833125,1,0.4,2,0,0
0.834375,1,0.4,2,0,0
0.835625,1,0.4,2,0,0
0.836875,1,0.4,2,0,0
0.838125,1,0.4,2,0,0
0.839375,1,0.4,2,0,0
0.840625,1,0.4,2,0,0
0.841875,1,0.4,2,0,0
0.843125,1,0.4,2,0,0
0.844375,1,0.4,2,0,0
0.845625,1,0.4,2,0,0
0.846875,1,0.4,2,0,0
0.848125,1,0.4,2,0,0
0.849375,1,0.4,2,0,0
0.850625,1,0.4,2,0,0
0.851875,1,0.4,2,0,0
0.853125,1,0.4,2,0,0
0.854375,1,0.4,2,0,0
0.855625,1,0.4,2,0,0
0.856875,1,0.4,2,0,0
0.858125,1,0.4,2,0,0
0.859375,1,0.4,2,0,0
0.860625,1,0.4,2,0,0
0.861875,1,0.4,2,0,0
0.863125,1,0.4,2,0,0
0.864375,1,0.4,2,0,0
0.865625,1,0.4,2,0,0
0.866875,1,0.4,2,0,0
0.868125,1,0.4,2,0,0
0.869375,1,0.4,2,0,0
0.870625,1,0.4,2,0,0
0.871875,1,0.4,2,0,0
0.873125,1,0.4,2,0,0
0.874375,1,0.4,2,0,0
0.875625,1,0.4,2,0,0
0.876875,1,0.4,2,0,0
0.878125,1,0.4,2,0,0
0.879375,1,0.4,2,0,0
0.880625,1,0.4,2,0,0
0.881875,1,0.4,2,0,0
0.883125,1,0.4,2,0,0
0.884375,1,0.4,2,0,0
0.885625,1,0.4,2,0,0
0.886875,1,0.4,2,0,0
0.888125,1,0.4,2,0,0
0.889375,1,0.4,2,0,0
0.890625,1,0.4,2,0,0
0.891875,1,0.4,2,0,0
0.893125,1,0.4,2,0,0
0.894375,1,0.4,2,0,0
0.895625,1,0.4,2,0,0
0.896875,1,0.4,2,0,0
0.898125,1,0.4,2,0,0
0.899375,1,0.4,2,0,0
0.900625,1,0.4,2,0,0
0.901875,1,0.4,2,0,0
0.903125,1,0.4,2,0,0
0.904375,1,0.4,2,0,0
0.905625,1,0.4,2,0,0
0.906875,1,0.4,2,0,0
0.908125,1,0.4,2,0,0
0.909375,1,0.4,2,0,0
0.910625,1,0.4,2,0,0
0.911875,1,0.4,2,0,0
0.913125,1,0.4,2,0,0
0.914375,1,0.4,2,0,0
0.915625,1,0.4,2,0,0
0.916875,1,0.4,2,0,0
0.918125,1,0.4,2,0,0
0.919375,1,0.4,2,0,0
0.920625,1,0.4,2,0,0
0.921875,1,0.4,2,0,0
0.923125,1,0.4,2,0,0
0.924375,1,0.4,2,0,0
0.925625,1,0.4,2,0,0
0.926875,1,0.4,2,0,0
0.928125,1,0.4,2,0,0
0.929375,1,0.4,2,0,0
0.930625,1,0.4,2,0,0
0.931875,1,0.4,2,0,0
0.933125,1,0.4,2,0,0
0.934375,1,0.4,2,0,0
0.935625,1,0.4,2,0,0
0.936875,1,0.4,2,0,0
0.938125,1,0.4,2,0,0
0.939375,1,0.4,2,0,0
0.940625,1,0.4,2,0,0
0.941875,1,0.4,2,0,0
0.943125,1,0.4,2,0,0
0.944375,1,0.4,2,0,0
0.945625,1,0.4,2,0,0
0.946875,1,0.4,2,0,0
0.948125,1,0.4,2,0,0
0.949375,1,0.4,2,0,0
0.950625,1,0.4,2,0,0
0.951875,1,0.4,2,0,0
0.953125,1,0.4,2,0,0
0.954375,1,0.4,2,0,0
0.955625,1,0.4,2,0,0
0.956875,1,0.4,2,0,0
0.958125,1,0.4,2,0,0
0.959375,1,0.4,2,0,0
0.960625,1,0.4,2,0,0
0.961875,1,0.4,2,0,0
0.963125,1,0.4,2,0,0
0.964375,1,0.4,2,0,0
0.965625,1,0.4,2,0,0
0.966875,1,0.4,2,0,0
0.968125,1,0.4,2,0,0
0.969375,1,0.4,2,0,0
0.970625,1,0.4,2,0,0
0.971875,1,0.4,2,0,0
0.973125,1,0.4,2,0,0
0.974375,1,0.4,2,0,0
0.975625,1,0.4,2,0,0
0.976875,1,0.4,2,0,0
0.978125,1,0.4,2,0,0
0.979375,1,0.4,2,0,0
0.980625,1,0.4,2,0,0
0.981875,1,0.4,2,0,0
0.983125,1,0.4,2,0,0
0.984375,1,0.4,2,0,0
0.985625,1,0.4,2,0,0
0.986875,1,0.4,2,0,0
0.988125,1,0.4,2,0,0
0.989375,1,0.4,2,0,0
0.990625,1,0.4,2,0,0
0.991875,1,0.4,2,0,0
0.993125,1,0.4,2,0,0
0.994375,1,0.4,2,0,0
0.995625,1,0.4,2,0,0
0.996875,1,0.4,2,0,0
0.998125,1,0.4,2,0,0
0.999375,1,0.4,2,0,0
