x,T,p,rho,U_0,U_1,U_2
0.000625,2.5,1,0.999943,-2.92084e-16,0,0
0.001875,2.5,1,0.999943,-2.92084e-16,0,0
0.003125,2.5,1,0.999943,-5.93451e-16,0,0
0.004375,2.5,1,0.999943,-5.93451e-16,0,0
0.005625,2.5,1,0.999943,-4.78489e-16,0,0
0.006875,2.5,1,0.999943,-4.78489e-16,0,0
0.008125,2.5,1,0.999943,-4.06116e-16,0,0
0.009375,2.5,1,0.999943,-4.06116e-16,0,0
0.010625,2.5,1,0.999943,-3.48055e-16,0,0
0.011875,2.5,1,0.999943,-3.48055e-16,0,0
0.013125,2.5,1,0.999943,-1.27486e-17,0,0
0.014375,2.5,1,0.999943,-1.27486e-17,0,0
0.015625,2.5,1,0.999943,9.67241e-16,0,0
0.016875,2.5,1,0.999943,9.67241e-16,0,0
0.018125,2.5,1,0.999943,3.12237e-15,0,0
0.019375,2.5,1,0.999943,3.12237e-15,0,0
0.020625,2.5,1,0.999943,7.61287e-15,0,0
0.021875,2.5,1,0.999943,7.61287e-15,0,0
0.023125,2.5,1,0.999943,1.67595e-14,0,0
0.024375,2.5,1,0.999943,1.67595e-14,0,0
0.025625,2.5,1,0.999943,3.42591e-14,0,0
0.026875,2.5,1,0.999943,3.42591e-14,0,0
0.028125,2.5,1,0.999943,6.9236e-14,0,0
0.029375,2.5,1,0.999943,6.9236e-14,0,0
0.030625,2.5,1,0.999943,1.37108e-13,0,0
0.031875,2.5,1,0.999943,1.37108e-13,0,0
0.033125,2.5,1,0.999943,2.67396e-13,0,0
0.034375,2.5,1,0.999943,2.67396e-13,0,0
0.035625,2.5,1,0.999943,5.16072e-13,0,0
0.036875,2.5,1,0.999943,5.16072e-13,0,0
0.038125,2.5,1,0.999943,9.87179e-13,0,0
0.039375,2.5,1,0.999943,9.87179e-13,0,0
0.040625,2.5,1,0.999943,1.87211e-12,0,0
0.041875,2.5,1,0.999943,1.87211e-12,0,0
0.043125,2.5,1,0.999943,3.52279e-12,0,0
0.044375,2.5,1,0.999943,3.52279e-12,0,0
0.045625,2.5,1,0.999943,6.57848e-12,0,0
0.046875,2.5,1,0.999943,6.57848e-12,0,0
0.048125,2.5,1,0.999943,1.21912e-11,0,0
0.049375,2.5,1,0.999943,1.21912e-11,0,0
0.050625,2.5,1,0.999943,2.24232e-11,0,0
0.051875,2.5,1,0.999943,2.24232e-11,0,0
0.053125,2.5,1,0.999943,4.09348e-11,0,0
0.054375,2.5,1,0.999943,4.09348e-11,0,0
0.055625,2.5,1,0.999943,7.41692e-11,0,0
0.056875,2.5,1,0.999943,7.41692e-11,0,0
0.058125,2.5,1,0.999943,1.33376e-10,0,0
0.059375,2.5,1,0.999943,1.33376e-10,0,0
0.060625,2.5,1,0.999943,2.3803e-10,0,0
0.061875,2.5,1,0.999943,2.3803e-10,0,0
0.063125,2.5,1,0.999943,4.21573e-10,0,0
0.064375,2.5,1,0.999943,4.21573e-10,0,0
0.065625,2.5,1,0.999943,7.40934e-10,0,0
0.066875,2.5,1,0.999943,7.40934e-10,0,0
0.068125,2.5,1,0.999943,1.29221e-09,0,0
0.069375,2.5,1,0.999943,1.29221e-09,0,0
0.070625,2.5,1,0.999943,2.23619e-09,0,0
0.071875,2.5,1,0.999943,2.23619e-09,0,0
0.073125,2.5,1,0.999943,3.83963e-09,0,0
0.074375,2.5,1,0.999943,3.83963e-09,0,0
0.075625,2.5,1,0.999943,6.54111e-09,0,0
0.076875,2.5,1,0.999943,6.54111e-09,0,0
0.078125,2.5,1,0.999943,1.10553e-08,0,0
0.079375,2.5,1,0.999943,1.10553e-08,0,0
0.080625,2.5,1,0.999943,1.85366e-08,0,0
0.081875,2.5,1,0.999943,1.85366e-08,0,0
0.083125,2.5,1,0.999943,3.08319e-08,0,0
0.084375,2.5,1,0.999943,3.08319e-08,0,0
0.085625,2.5,1,0.999943,5.087e-08,0,0
0.086875,2.5,1,0.999943,5.087e-08,0,0
0.088125,2.5,1,0.999943,8.32509e-08,0,0
0.089375,2.5,1,0.999943,8.32509e-08,0,0
0.090625,2.5,1,0.999943,1.35132e-07,0,0
0.091875,2.5,1,0.999943,1.35132e-07,0,0
0.093125,2.5,1,0.999943,2.17543e-07,0,0
0.094375,2.5,1,0.999943,2.17543e-07,0,0
0.095625,2.5,1,0.999943,3.47316e-07,0,0
0.096875,2.5,1,0.999943,3.47316e-07,0,0
0.098125,2.5,0.999999,0.999943,5.49883e-07,0,0
0.099375,2.5,0.999999,0.999943,5.49883e-07,0,0
0.100625,2.5,0.999999,0.999943,8.63289e-07,0,0
0.101875,2.5,0.999999,0.999943,8.63289e-07,0,0
0.103125,2.5,0.999998,0.999942,1.34387e-06,0,0
0.104375,2.5,0.999998,0.999942,1.34387e-06,0,0
0.105625,2.5,0.999998,0.999942,2.07417e-06,0,0
0.106875,2.5,0.999998,0.999942,2.07417e-06,0,0
0.108125,2.5,0.999996,0.999941,3.17389e-06,0,0
0.109375,2.5,0.999996,0.999941,3.17389e-06,0,0
0.110625,2.5,0.999994,0.99994,4.81472e-06,0,0
0.111875,2.5,0.999994,0.99994,4.81472e-06,0,0
0.113125,2.49999,0.999992,0.999938,7.24026e-06,0,0
0.114375,2.49999,0.999992,0.999938,7.24026e-06,0,0
0.115625,2.49999,0.999987,0.999935,1.07923e-05,0,0
0.116875,2.49999,0.999987,0.999935,1.07923e-05,0,0
0.118125,2.49999,0.999982,0.99993,1.59447e-05,0,0
0.119375,2.49999,0.999982,0.99993,1.59447e-05,0,0
0.120625,2.49998,0.999973,0.999924,2.33474e-05,0,0
0.121875,2.49998,0.999973,0.999924,2.33474e-05,0,0
0.123125,2.49997,0.999961,0.999916,3.38804e-05,0,0
0.124375,2.49997,0.999961,0.999916,3.38804e-05,0,0
0.125625,2.49996,0.999943,0.999904,4.87212e-05,0,0
0.126875,2.49996,0.999943,0.999904,4.87212e-05,0,0
0.128125,2.49994,0.999919,0.999887,6.94253e-05,0,0
0.129375,2.49994,0.999919,0.999887,6.94253e-05,0,0
0.130625,2.49992,0.999886,0.999863,9.80212e-05,0,0
0.131875,2.49992,0.999886,0.999863,9.80212e-05,0,0
0.133125,2.49988,0.99984,0.999831,0.000137119,0,0
0.134375,2.49988,0.99984,0.999831,0.000137119,0,0
0.135625,2.49984,0.999779,0.999788,0.000190031,0,0
0.136875,2.49984,0.999779,0.999788,0.000190031,0,0
0.138125,2.49978,0.999696,0.999729,0.000260903,0,0
0.139375,2.49978,0.999696,0.999729,0.000260903,0,0
0.140625,2.4997,0.999587,0.999652,0.000354844,0,0
0.141875,2.4997,0.999587,0.999652,0.000354844,0,0
0.143125,2.49959,0.999443,0.99955,0.000478061,0,0
0.144375,2.49959,0.999443,0.99955,0.000478061,0,0
0.145625,2.49945,0.999256,0.999418,0.000637974,0,0
0.146875,2.49945,0.999256,0.999418,0.000637974,0,0
0.148125,2.49928,0.999016,0.999249,0.00084331,0,0
0.149375,2.49928,0.999016,0.999249,0.00084331,0,0
0.150625,2.49905,0.998712,0.999033,0.00110416,0,0
0.151875,2.49905,0.998712,0.999033,0.00110416,0,0
0.153125,2.49877,0.998329,0.998762,0.00143201,0,0
0.154375,2.49877,0.998329,0.998762,0.00143201,0,0
0.155625,2.49843,0.997852,0.998425,0.00183966,0,0
0.156875,2.49843,0.997852,0.998425,0.00183966,0,0
0.158125,2.498,0.997266,0.998009,0.00234114,0,0
0.159375,2.498,0.997266,0.998009,0.00234114,0,0
0.160625,2.49748,0.996553,0.997503,0.00295152,0,0
0.161875,2.49748,0.996553,0.997503,0.00295152,0,0
0.163125,2.49685,0.995694,0.996894,0.00368667,0,0
0.164375,2.49685,0.995694,0.996894,0.00368667,0,0
0.165625,2.4961,0.99467,0.996167,0.00456293,0,0
0.166875,2.4961,0.99467,0.996167,0.00456293,0,0
0.168125,2.49522,0.993463,0.995309,0.00559675,0,0
0.169375,2.49522,0.993463,0.995309,0.00559675,0,0
0.170625,2.4942,0.992054,0.994306,0.0068043,0,0
0.171875,2.4942,0.992054,0.994306,0.0068043,0,0
0.173125,2.49301,0.990425,0.993147,0.00820109,0,0
0.174375,2.49301,0.990425,0.993147,0.00820109,0,0
0.175625,2.49165,0.988561,0.991818,0.00980152,0,0
0.176875,2.49165,0.988561,0.991818,0.00980152,0,0
0.178125,2.49011,0.986447,0.99031,0.0116185,0,0
0.179375,2.49011,0.986447,0.99031,0.0116185,0,0
0.180625,2.48837,0.984071,0.988614,0.0136634,0,0
0.181875,2.48837,0.984071,0.988614,0.0136634,0,0
0.183125,2.48644,0.981425,0.986722,0.0159453,0,0
0.184375,2.48644,0.981425,0.986722,0.0159453,0,0
0.185625,2.4843,0.978502,0.984629,0.0184714,0,0
0.186875,2.4843,0.978502,0.984629,0.0184714,0,0
0.188125,2.48195,0.975298,0.982333,0.0212465,0,0
0.189375,2.48195,0.975298,0.982333,0.0212465,0,0
0.190625,2.4794,0.971812,0.979831,0.0242733,0,0
0.191875,2.4794,0.971812,0.979831,0.0242733,0,0
0.193125,2.47663,0.968046,0.977125,0.0275523,0,0
0.194375,2.47663,0.968046,0.977125,0.0275523,0,0
0.195625,2.47366,0.964006,0.974217,0.031082,0,0
0.196875,2.47366,0.964006,0.974217,0.031082,0,0
0.198125,2.47048,0.959696,0.971111,0.0348592,0,0
0.199375,2.47048,0.959696,0.971111,0.0348592,0,0
0.200625,2.46709,0.955127,0.967812,0.0388788,0,0
0.201875,2.46709,0.955127,0.967812,0.0388788,0,0
0.203125,2.46352,0.950309,0.964327,0.0431347,0,0
0.204375,2.46352,0.950309,0.964327,0.0431347,0,0
0.205625,2.45975,0.945253,0.960664,0.0476194,0,0
0.206875,2.45975,0.945253,0.960664,0.0476194,0,0
0.208125,2.45581,0.939972,0.956832,0.0523245,0,0
0.209375,2.45581,0.939972,0.956832,0.0523245,0,0
0.210625,2.45169,0.934479,0.952838,0.0572412,0,0
0.211875,2.45169,0.934479,0.952838,0.0572412,0,0
0.213125,2.44741,0.928789,0.948693,0.06236,0,0
0.214375,2.44741,0.928789,0.948693,0.06236,0,0
0.215625,2.44297,0.922916,0.944406,0.0676711,0,0
0.216875,2.44297,0.922916,0.944406,0.0676711,0,0
0.218125,2.43839,0.916873,0.939986,0.0731649,0,0
0.219375,2.43839,0.916873,0.939986,0.0731649,0,0
0.220625,2.43367,0.910675,0.935444,0.0788314,0,0
0.221875,2.43367,0.910675,0.935444,0.0788314,0,0
0.223125,2.42881,0.904335,0.930788,0.0846611,0,0
0.224375,2.42881,0.904335,0.930788,0.0846611,0,0
0.225625,2.42384,0.897866,0.926027,0.0906446,0,0
0.226875,2.42384,0.897866,0.926027,0.0906446,0,0
0.228125,2.41875,0.891282,0.92117,0.0967726,0,0
0.229375,2.41875,0.891282,0.92117,0.0967726,0,0
0.230625,2.41355,0.884594,0.916226,0.103037,0,0
0.231875,2.41355,0.884594,0.916226,0.103037,0,0
0.233125,2.40826,0.877813,0.911202,0.109428,0,0
0.234375,2.40826,0.877813,0.911202,0.109428,0,0
0.235625,2.40287,0.870951,0.906105,0.115939,0,0
0.236875,2.40287,0.870951,0.906105,0.115939,0,0
0.238125,2.3974,0.864018,0.900944,0.122562,0,0
0.239375,2.3974,0.864018,0.900944,0.122562,0,0
0.240625,2.39185,0.857022,0.895725,0.12929,0,0
0.241875,2.39185,0.857022,0.895725,0.12929,0,0
0.243125,2.38622,0.849974,0.890453,0.136116,0,0
0.244375,2.38622,0.849974,0.890453,0.136116,0,0
0.245625,2.38052,0.842882,0.885135,0.143033,0,0
0.246875,2.38052,0.842882,0.885135,0.143033,0,0
0.248125,2.37477,0.835753,0.879777,0.150037,0,0
0.249375,2.37477,0.835753,0.879777,0.150037,0,0
0.250625,2.36895,0.828594,0.874382,0.157122,0,0
0.251875,2.36895,0.828594,0.874382,0.157122,0,0
0.253125,2.36308,0.821412,0.868957,0.164282,0,0
0.254375,2.36308,0.821412,0.868957,0.164282,0,0
0.255625,2.35716,0.814212,0.863505,0.171513,0,0
0.256875,2.35716,0.814212,0.863505,0.171513,0,0
0.258125,2.35119,0.807002,0.858031,0.17881,0,0
0.259375,2.35119,0.807002,0.858031,0.17881,0,0
0.260625,2.34518,0.799786,0.852537,0.186169,0,0
0.261875,2.34518,0.799786,0.852537,0.186169,0,0
0.263125,2.33913,0.792568,0.847028,0.193587,0,0
0.264375,2.33913,0.792568,0.847028,0.193587,0,0
0.265625,2.33304,0.785353,0.841507,0.201059,0,0
0.266875,2.33304,0.785353,0.841507,0.201059,0,0
0.268125,2.32692,0.778145,0.835977,0.208583,0,0
0.269375,2.32692,0.778145,0.835977,0.208583,0,0
0.270625,2.32077,0.770948,0.830441,0.216155,0,0
0.271875,2.32077,0.770948,0.830441,0.216155,0,0
0.273125,2.31459,0.763765,0.8249,0.223773,0,0
0.274375,2.31459,0.763765,0.8249,0.223773,0,0
0.275625,2.30838,0.7566,0.819358,0.231434,0,0
0.276875,2.30838,0.7566,0.819358,0.231434,0,0
0.278125,2.30215,0.749455,0.813817,0.239136,0,0
0.279375,2.30215,0.749455,0.813817,0.239136,0,0
0.280625,2.2959,0.742332,0.808278,0.246875,0,0
0.281875,2.2959,0.742332,0.808278,0.246875,0,0
0.283125,2.28963,0.735235,0.802744,0.254651,0,0
0.284375,2.28963,0.735235,0.802744,0.254651,0,0
0.285625,2.28333,0.728165,0.797216,0.262461,0,0
0.286875,2.28333,0.728165,0.797216,0.262461,0,0
0.288125,2.27703,0.721125,0.791695,0.270303,0,0
0.289375,2.27703,0.721125,0.791695,0.270303,0,0
0.290625,2.2707,0.714116,0.786184,0.278175,0,0
0.291875,2.2707,0.714116,0.786184,0.278175,0,0
0.293125,2.26436,0.70714,0.780683,0.286077,0,0
0.294375,2.26436,0.70714,0.780683,0.286077,0,0
0.295625,2.25801,0.700198,0.775194,0.294006,0,0
0.296875,2.25801,0.700198,0.775194,0.294006,0,0
0.298125,2.25165,0.693293,0.769718,0.301961,0,0
0.299375,2.25165,0.693293,0.769718,0.301961,0,0
0.300625,2.24527,0.686424,0.764256,0.309941,0,0
0.301875,2.24527,0.686424,0.764256,0.309941,0,0
0.303125,2.23889,0.679594,0.758809,0.317945,0,0
0.304375,2.23889,0.679594,0.758809,0.317945,0,0
0.305625,2.2325,0.672804,0.753378,0.325971,0,0
0.306875,2.2325,0.672804,0.753378,0.325971,0,0
0.308125,2.2261,0.666053,0.747964,0.334019,0,0
0.309375,2.2261,0.666053,0.747964,0.334019,0,0
0.310625,2.21969,0.659344,0.742567,0.342086,0,0
0.311875,2.21969,0.659344,0.742567,0.342086,0,0
0.313125,2.21328,0.652677,0.737188,0.350174,0,0
0.314375,2.21328,0.652677,0.737188,0.350174,0,0
0.315625,2.20686,0.646053,0.731829,0.35828,0,0
0.316875,2.20686,0.646053,0.731829,0.35828,0,0
0.318125,2.20043,0.639472,0.726488,0.366404,0,0
0.319375,2.20043,0.639472,0.726488,0.366404,0,0
0.320625,2.19401,0.632935,0.721168,0.374545,0,0
0.321875,2.19401,0.632935,0.721168,0.374545,0,0
0.323125,2.18758,0.626442,0.715869,0.382702,0,0
0.324375,2.18758,0.626442,0.715869,0.382702,0,0
0.325625,2.18114,0.619995,0.710591,0.390875,0,0
0.326875,2.18114,0.619995,0.710591,0.390875,0,0
0.328125,2.17471,0.613592,0.705334,0.399063,0,0
0.329375,2.17471,0.613592,0.705334,0.399063,0,0
0.330625,2.16827,0.607235,0.700099,0.407265,0,0
0.331875,2.16827,0.607235,0.700099,0.407265,0,0
0.333125,2.16183,0.600925,0.694887,0.415481,0,0
0.334375,2.16183,0.600925,0.694887,0.415481,0,0
0.335625,2.15539,0.59466,0.689697,0.42371,0,0
0.336875,2.15539,0.59466,0.689697,0.42371,0,0
0.338125,2.14895,0.588442,0.684531,0.431953,0,0
0.339375,2.14895,0.588442,0.684531,0.431953,0,0
0.340625,2.14251,0.582271,0.679387,0.440207,0,0
0.341875,2.14251,0.582271,0.679387,0.440207,0,0
0.343125,2.13607,0.576146,0.674268,0.448474,0,0
0.344375,2.13607,0.576146,0.674268,0.448474,0,0
0.345625,2.12963,0.570069,0.669172,0.456752,0,0
0.346875,2.12963,0.570069,0.669172,0.456752,0,0
0.348125,2.1232,0.564038,0.6641,0.465041,0,0
0.349375,2.1232,0.564038,0.6641,0.465041,0,0
0.350625,2.11676,0.558055,0.659053,0.47334,0,0
0.351875,2.11676,0.558055,0.659053,0.47334,0,0
0.353125,2.11033,0.552119,0.65403,0.48165,0,0
0.354375,2.11033,0.552119,0.65403,0.48165,0,0
0.355625,2.1039,0.54623,0.649032,0.48997,0,0
0.356875,2.1039,0.54623,0.649032,0.48997,0,0
0.358125,2.09747,0.540388,0.644059,0.4983,0,0
0.359375,2.09747,0.540388,0.644059,0.4983,0,0
0.360625,2.09104,0.534593,0.639111,0.506639,0,0
0.361875,2.09104,0.534593,0.639111,0.506639,0,0
0.363125,2.08462,0.528846,0.634188,0.514987,0,0
0.364375,2.08462,0.528846,0.634188,0.514987,0,0
0.365625,2.0782,0.523146,0.629291,0.523344,0,0
0.366875,2.0782,0.523146,0.629291,0.523344,0,0
0.368125,2.07178,0.517493,0.624419,0.531709,0,0
0.369375,2.07178,0.517493,0.624419,0.531709,0,0
0.370625,2.06537,0.511887,0.619572,0.540082,0,0
0.371875,2.06537,0.511887,0.619572,0.540082,0,0
0.373125,2.05896,0.506328,0.614751,0.548463,0,0
0.374375,2.05896,0.506328,0.614751,0.548463,0,0
0.375625,2.05256,0.500815,0.609955,0.556852,0,0
0.376875,2.05256,0.500815,0.609955,0.556852,0,0
0.378125,2.04616,0.49535,0.605186,0.565249,0,0
0.379375,2.04616,0.49535,0.605186,0.565249,0,0
0.380625,2.03976,0.489931,0.600442,0.573652,0,0
0.381875,2.03976,0.489931,0.600442,0.573652,0,0
0.383125,2.03337,0.484558,0.595724,0.582063,0,0
0.384375,2.03337,0.484558,0.595724,0.582063,0,0
0.385625,2.02698,0.479232,0.591032,0.590481,0,0
0.386875,2.02698,0.479232,0.591032,0.590481,0,0
0.388125,2.0206,0.473952,0.586366,0.598905,0,0
0.389375,2.0206,0.473952,0.586366,0.598905,0,0
0.390625,2.01423,0.468718,0.581727,0.607335,0,0
0.391875,2.01423,0.468718,0.581727,0.607335,0,0
0.393125,2.00786,0.463531,0.577113,0.615771,0,0
0.394375,2.00786,0.463531,0.577113,0.615771,0,0
0.395625,2.00149,0.458389,0.572525,0.624213,0,0
0.396875,2.00149,0.458389,0.572525,0.624213,0,0
0.398125,1.99514,0.453292,0.567964,0.632661,0,0
0.399375,1.99514,0.453292,0.567964,0.632661,0,0
0.400625,1.98879,0.448241,0.563429,0.641114,0,0
0.401875,1.98879,0.448241,0.563429,0.641114,0,0
0.403125,1.98244,0.443236,0.55892,0.649572,0,0
0.404375,1.98244,0.443236,0.55892,0.649572,0,0
0.405625,1.9761,0.438275,0.554438,0.658035,0,0
0.406875,1.9761,0.438275,0.554438,0.658035,0,0
0.408125,1.96977,0.43336,0.549982,0.666503,0,0
0.409375,1.96977,0.43336,0.549982,0.666503,0,0
0.410625,1.96345,0.42849,0.545553,0.674975,0,0
0.411875,1.96345,0.42849,0.545553,0.674975,0,0
0.413125,1.95713,0.423665,0.54115,0.68345,0,0
0.414375,1.95713,0.423665,0.54115,0.68345,0,0
0.415625,1.95082,0.418884,0.536775,0.691928,0,0
0.416875,1.95082,0.418884,0.536775,0.691928,0,0
0.418125,1.94452,0.414149,0.532426,0.70041,0,0
0.419375,1.94452,0.414149,0.532426,0.70041,0,0
0.420625,1.93823,0.409458,0.528104,0.708894,0,0
0.421875,1.93823,0.409458,0.528104,0.708894,0,0
0.423125,1.93195,0.404812,0.523809,0.717379,0,0
0.424375,1.93195,0.404812,0.523809,0.717379,0,0
0.425625,1.92567,0.40021,0.519542,0.725865,0,0
0.426875,1.92567,0.40021,0.519542,0.725865,0,0
0.428125,1.91941,0.395654,0.515303,0.734351,0,0
0.429375,1.91941,0.395654,0.515303,0.734351,0,0
0.430625,1.91316,0.391143,0.511092,0.742835,0,0
0.431875,1.91316,0.391143,0.511092,0.742835,0,0
0.433125,1.90692,0.386677,0.50691,0.751318,0,0
0.434375,1.90692,0.386677,0.50691,0.751318,0,0
0.435625,1.9007,0.382258,0.502758,0.759795,0,0
0.436875,1.9007,0.382258,0.502758,0.759795,0,0
0.438125,1.89449,0.377885,0.498635,0.768267,0,0
0.439375,1.89449,0.377885,0.498635,0.768267,0,0
0.440625,1.88829,0.373559,0.494544,0.776731,0,0
0.441875,1.88829,0.373559,0.494544,0.776731,0,0
0.443125,1.88212,0.369281,0.490484,0.785183,0,0
0.444375,1.88212,0.369281,0.490484,0.785183,0,0
0.445625,1.87597,0.365053,0.486459,0.79362,0,0
0.446875,1.87597,0.365053,0.486459,0.79362,0,0
0.448125,1.86984,0.360876,0.482469,0.802037,0,0
0.449375,1.86984,0.360876,0.482469,0.802037,0,0
0.450625,1.86374,0.356752,0.478516,0.810429,0,0
0.451875,1.86374,0.356752,0.478516,0.810429,0,0
0.453125,1.85767,0.352683,0.474604,0.81879,0,0
0.454375,1.85767,0.352683,0.474604,0.81879,0,0
0.455625,1.85165,0.348675,0.470737,0.827109,0,0
0.456875,1.85165,0.348675,0.470737,0.827109,0,0
0.458125,1.84567,0.344729,0.466917,0.835376,0,0
0.459375,1.84567,0.344729,0.466917,0.835376,0,0
0.460625,1.83975,0.340853,0.463153,0.843576,0,0
0.461875,1.83975,0.340853,0.463153,0.843576,0,0
0.463125,1.8339,0.337054,0.45945,0.851692,0,0
0.464375,1.8339,0.337054,0.45945,0.851692,0,0
0.465625,1.82814,0.33334,0.455819,0.859699,0,0
0.466875,1.82814,0.33334,0.455819,0.859699,0,0
0.468125,1.82249,0.329722,0.45227,0.86757,0,0
0.469375,1.82249,0.329722,0.45227,0.86757,0,0
0.470625,1.81698,0.326217,0.44882,0.875265,0,0
0.471875,1.81698,0.326217,0.44882,0.875265,0,0
0.473125,1.81164,0.322843,0.445487,0.882738,0,0
0.474375,1.81164,0.322843,0.445487,0.882738,0,0
0.475625,1.80651,0.319622,0.442294,0.889929,0,0
0.476875,1.80651,0.319622,0.442294,0.889929,0,0
0.478125,1.80164,0.316583,0.439272,0.896766,0,0
0.479375,1.80164,0.316583,0.439272,0.896766,0,0
0.480625,1.79711,0.31376,0.436455,0.90316,0,0
0.481875,1.79711,0.31376,0.436455,0.90316,0,0
0.483125,1.79297,0.311193,0.433883,0.909012,0,0
0.484375,1.79297,0.311193,0.433883,0.909012,0,0
0.485625,1.7893,0.308921,0.431599,0.914215,0,0
0.486875,1.7893,0.308921,0.431599,0.914215,0,0
0.488125,1.78618,0.306985,0.429644,0.918667,0,0
0.489375,1.78618,0.306985,0.429644,0.918667,0,0
0.490625,1.78365,0.305415,0.428051,0.922286,0,0
0.491875,1.78365,0.305415,0.428051,0.922286,0,0
0.493125,1.78175,0.304223,0.426835,0.925036,0,0
0.494375,1.78175,0.304223,0.426835,0.925036,0,0
0.495625,1.78045,0.303396,0.425985,0.926941,0,0
0.496875,1.78045,0.303396,0.425985,0.926941,0,0
0.498125,1.77968,0.302891,0.425461,0.928101,0,0
0.499375,1.77968,0.302891,0.425461,0.928101,0,0
0.500625,1.77932,0.30264,0.425194,0.928673,0,0
0.501875,1.77932,0.30264,0.425194,0.928673,0,0
0.503125,1.77924,0.302563,0.425106,0.928842,0,0
0.504375,1.77924,0.302563,0.425106,0.928842,0,0
0.505625,1.77931,0.302585,0.425121,0.928784,0,0
0.506875,1.77931,0.302585,0.425121,0.928784,0,0
0.508125,1.77944,0.302649,0.425178,0.928632,0,0
0.509375,1.77944,0.302649,0.425178,0.928632,0,0
0.510625,1.77959,0.30272,0.425243,0.928467,0,0
0.511875,1.77959,0.30272,0.425243,0.928467,0,0
0.513125,1.77971,0.30278,0.425297,0.928327,0,0
0.514375,1.77971,0.30278,0.425297,0.928327,0,0
0.515625,1.77982,0.302826,0.425337,0.928219,0,0
0.516875,1.77982,0.302826,0.425337,0.928219,0,0
0.518125,1.7799,0.302861,0.425365,0.92814,0,0
0.519375,1.7799,0.302861,0.425365,0.92814,0,0
0.520625,1.77998,0.302887,0.425385,0.928079,0,0
0.521875,1.77998,0.302887,0.425385,0.928079,0,0
0.523125,1.78004,0.302908,0.425398,0.92803,0,0
0.524375,1.78004,0.302908,0.425398,0.92803,0,0
0.525625,1.7801,0.302926,0.425409,0.927988,0,0
0.526875,1.7801,0.302926,0.425409,0.927988,0,0
0.528125,1.78016,0.302942,0.425418,0.92795,0,0
0.529375,1.78016,0.302942,0.425418,0.92795,0,0
0.530625,1.78022,0.302957,0.425425,0.927915,0,0
0.531875,1.78022,0.302957,0.425425,0.927915,0,0
0.533125,1.78028,0.302971,0.425431,0.927883,0,0
0.534375,1.78028,0.302971,0.425431,0.927883,0,0
0.535625,1.78033,0.302984,0.425436,0.927852,0,0
0.536875,1.78033,0.302984,0.425436,0.927852,0,0
0.538125,1.78039,0.302996,0.425439,0.927824,0,0
0.539375,1.78039,0.302996,0.425439,0.927824,0,0
0.540625,1.78044,0.303007,0.425442,0.927798,0,0
0.541875,1.78044,0.303007,0.425442,0.927798,0,0
0.543125,1.7805,0.303018,0.425444,0.927774,0,0
0.544375,1.7805,0.303018,0.425444,0.927774,0,0
0.545625,1.78055,0.303027,0.425444,0.927752,0,0
0.546875,1.78055,0.303027,0.425444,0.927752,0,0
0.548125,1.78061,0.303036,0.425444,0.927731,0,0
0.549375,1.78061,0.303036,0.425444,0.927731,0,0
0.550625,1.78066,0.303045,0.425442,0.927712,0,0
0.551875,1.78066,0.303045,0.425442,0.927712,0,0
0.553125,1.78072,0.303052,0.42544,0.927694,0,0
0.554375,1.78072,0.303052,0.42544,0.927694,0,0
0.555625,1.78077,0.303059,0.425437,0.927678,0,0
0.556875,1.78077,0.303059,0.425437,0.927678,0,0
0.558125,1.78082,0.303066,0.425433,0.927663,0,0
0.559375,1.78082,0.303066,0.425433,0.927663,0,0
0.560625,1.78088,0.303071,0.425428,0.92765,0,0
0.561875,1.78088,0.303071,0.425428,0.92765,0,0
0.563125,1.78093,0.303077,0.425423,0.927637,0,0
0.564375,1.78093,0.303077,0.425423,0.927637,0,0
0.565625,1.78099,0.303082,0.425416,0.927626,0,0
0.566875,1.78099,0.303082,0.425416,0.927626,0,0
0.568125,1.78105,0.303087,0.425409,0.927615,0,0
0.569375,1.78105,0.303087,0.425409,0.927615,0,0
0.570625,1.7811,0.303091,0.425402,0.927606,0,0
0.571875,1.7811,0.303091,0.425402,0.927606,0,0
0.573125,1.78116,0.303095,0.425393,0.927597,0,0
0.574375,1.78116,0.303095,0.425393,0.927597,0,0
0.575625,1.78122,0.303098,0.425384,0.927589,0,0
0.576875,1.78122,0.303098,0.425384,0.927589,0,0
0.578125,1.78128,0.303101,0.425374,0.927582,0,0
0.579375,1.78128,0.303101,0.425374,0.927582,0,0
0.580625,1.78134,0.303104,0.425363,0.927575,0,0
0.581875,1.78134,0.303104,0.425363,0.927575,0,0
0.583125,1.78141,0.303107,0.425352,0.927569,0,0
0.584375,1.78141,0.303107,0.425352,0.927569,0,0
0.585625,1.78147,0.30311,0.42534,0.927564,0,0
0.586875,1.78147,0.30311,0.42534,0.927564,0,0
0.588125,1.78154,0.303112,0.425327,0.927559,0,0
0.589375,1.78154,0.303112,0.425327,0.927559,0,0
0.590625,1.78161,0.303114,0.425314,0.927554,0,0
0.591875,1.78161,0.303114,0.425314,0.927554,0,0
0.593125,1.78168,0.303116,0.4253,0.92755,0,0
0.594375,1.78168,0.303116,0.4253,0.92755,0,0
0.595625,1.78175,0.303118,0.425285,0.927546,0,0
0.596875,1.78175,0.303118,0.425285,0.927546,0,0
0.598125,1.78182,0.30312,0.42527,0.927542,0,0
0.599375,1.78182,0.30312,0.42527,0.927542,0,0
0.600625,1.7819,0.303121,0.425253,0.927539,0,0
0.601875,1.7819,0.303121,0.425253,0.927539,0,0
0.603125,1.78198,0.303123,0.425236,0.927536,0,0
0.604375,1.78198,0.303123,0.425236,0.927536,0,0
0.605625,1.78207,0.303124,0.425218,0.927533,0,0
0.606875,1.78207,0.303124,0.425218,0.927533,0,0
0.608125,1.78215,0.303125,0.4252,0.92753,0,0
0.609375,1.78215,0.303125,0.4252,0.92753,0,0
0.610625,1.78224,0.303126,0.42518,0.927528,0,0
0.611875,1.78224,0.303126,0.42518,0.927528,0,0
0.613125,1.78233,0.303128,0.425159,0.927526,0,0
0.614375,1.78233,0.303128,0.425159,0.927526,0,0
0.615625,1.78243,0.303129,0.425138,0.927524,0,0
0.616875,1.78243,0.303129,0.425138,0.927524,0,0
0.618125,1.78253,0.30313,0.425115,0.927522,0,0
0.619375,1.78253,0.30313,0.425115,0.927522,0,0
0.620625,1.78264,0.30313,0.425091,0.927521,0,0
0.621875,1.78264,0.30313,0.425091,0.927521,0,0
0.623125,1.78275,0.303131,0.425066,0.927519,0,0
0.624375,1.78275,0.303131,0.425066,0.927519,0,0
0.625625,1.78286,0.303132,0.42504,0.927518,0,0
0.626875,1.78286,0.303132,0.42504,0.927518,0,0
0.628125,1.78298,0.303133,0.425012,0.927517,0,0
0.629375,1.78298,0.303133,0.425012,0.927517,0,0
0.630625,1.78311,0.303133,0.424982,0.927516,0,0
0.631875,1.78311,0.303133,0.424982,0.927516,0,0
0.633125,1.78324,0.303134,0.424952,0.927516,0,0
0.634375,1.78324,0.303134,0.424952,0.927516,0,0
0.635625,1.78338,0.303134,0.424919,0.927515,0,0
0.636875,1.78338,0.303134,0.424919,0.927515,0,0
0.638125,1.78353,0.303135,0.424884,0.927515,0,0
0.639375,1.78353,0.303135,0.424884,0.927515,0,0
0.640625,1.78369,0.303135,0.424848,0.927514,0,0
0.641875,1.78369,0.303135,0.424848,0.927514,0,0
0.643125,1.78385,0.303136,0.424809,0.927514,0,0
0.644375,1.78385,0.303136,0.424809,0.927514,0,0
0.645625,1.78403,0.303136,0.424767,0.927514,0,0
0.646875,1.78403,0.303136,0.424767,0.927514,0,0
0.648125,1.78422,0.303137,0.424723,0.927514,0,0
0.649375,1.78422,0.303137,0.424723,0.927514,0,0
0.650625,1.78442,0.303137,0.424676,0.927515,0,0
0.651875,1.78442,0.303137,0.424676,0.927515,0,0
0.653125,1.78464,0.303137,0.424625,0.927515,0,0
0.654375,1.78464,0.303137,0.424625,0.927515,0,0
0.655625,1.78487,0.303138,0.424569,0.927516,0,0
0.656875,1.78487,0.303138,0.424569,0.927516,0,0
0.658125,1.78513,0.303138,0.424509,0.927517,0,0
0.659375,1.78513,0.303138,0.424509,0.927517,0,0
0.660625,1.78541,0.303138,0.424443,0.927519,0,0
0.661875,1.78541,0.303138,0.424443,0.927519,0,0
0.663125,1.78572,0.303139,0.42437,0.927521,0,0
0.664375,1.78572,0.303139,0.42437,0.927521,0,0
0.665625,1.78607,0.303139,0.424286,0.927524,0,0
0.666875,1.78607,0.303139,0.424286,0.927524,0,0
0.668125,1.78648,0.30314,0.424189,0.927528,0,0
0.669375,1.78648,0.30314,0.424189,0.927528,0,0
0.670625,1.78697,0.30314,0.424074,0.927535,0,0
0.671875,1.78697,0.30314,0.424074,0.927535,0,0
0.673125,1.78757,0.303141,0.423933,0.927544,0,0
0.674375,1.78757,0.303141,0.423933,0.927544,0,0
0.675625,1.78832,0.303142,0.423756,0.927556,0,0
0.676875,1.78832,0.303142,0.423756,0.927556,0,0
0.678125,1.78929,0.303143,0.423527,0.927574,0,0
0.679375,1.78929,0.303143,0.423527,0.927574,0,0
0.680625,1.79057,0.303145,0.423228,0.927599,0,0
0.681875,1.79057,0.303145,0.423228,0.927599,0,0
0.683125,1.79226,0.303146,0.422831,0.927631,0,0
0.684375,1.79226,0.303146,0.422831,0.927631,0,0
0.685625,1.79451,0.303148,0.422303,0.927675,0,0
0.686875,1.79451,0.303148,0.422303,0.927675,0,0
0.688125,1.7975,0.30315,0.421604,0.92773,0,0
0.689375,1.7975,0.30315,0.421604,0.92773,0,0
0.690625,1.80144,0.303153,0.420685,0.9278,0,0
0.691875,1.80144,0.303153,0.420685,0.9278,0,0
0.693125,1.8066,0.303156,0.419488,0.927887,0,0
0.694375,1.8066,0.303156,0.419488,0.927887,0,0
0.695625,1.81326,0.303158,0.417951,0.927992,0,0
0.696875,1.81326,0.303158,0.417951,0.927992,0,0
0.698125,1.82175,0.303161,0.416008,0.928115,0,0
0.699375,1.82175,0.303161,0.416008,0.928115,0,0
0.700625,1.83241,0.303164,0.41359,0.928257,0,0
0.701875,1.83241,0.303164,0.41359,0.928257,0,0
0.703125,1.84562,0.303167,0.410633,0.928418,0,0
0.704375,1.84562,0.303167,0.410633,0.928418,0,0
0.705625,1.86176,0.303169,0.407077,0.928597,0,0
0.706875,1.86176,0.303169,0.407077,0.928597,0,0
0.708125,1.88117,0.30317,0.402878,0.928789,0,0
0.709375,1.88117,0.30317,0.402878,0.928789,0,0
0.710625,1.90421,0.303172,0.398006,0.928993,0,0
0.711875,1.90421,0.303172,0.398006,0.928993,0,0
0.713125,1.93115,0.303172,0.392453,0.929203,0,0
0.714375,1.93115,0.303172,0.392453,0.929203,0,0
0.715625,1.96223,0.303171,0.386236,0.929414,0,0
0.716875,1.96223,0.303171,0.386236,0.929414,0,0
0.718125,1.99758,0.30317,0.3794,0.92962,0,0
0.719375,1.99758,0.30317,0.3794,0.92962,0,0
0.720625,2.03721,0.303167,0.372017,0.929814,0,0
0.721875,2.03721,0.303167,0.372017,0.929814,0,0
0.723125,2.08099,0.303164,0.364187,0.929987,0,0
0.724375,2.08099,0.303164,0.364187,0.929987,0,0
0.725625,2.12863,0.30316,0.35603,0.930133,0,0
0.726875,2.12863,0.30316,0.35603,0.930133,0,0
0.728125,2.17967,0.303154,0.347686,0.930244,0,0
0.729375,2.17967,0.303154,0.347686,0.930244,0,0
0.730625,2.23347,0.303149,0.339305,0.930315,0,0
0.731875,2.23347,0.303149,0.339305,0.930315,0,0
0.733125,2.28921,0.303142,0.331037,0.930339,0,0
0.734375,2.28921,0.303142,0.331037,0.930339,0,0
0.735625,2.34594,0.303136,0.323025,0.930315,0,0
0.736875,2.34594,0.303136,0.323025,0.930315,0,0
0.738125,2.40262,0.30313,0.315398,0.930243,0,0
0.739375,2.40262,0.30313,0.315398,0.930243,0,0
0.740625,2.45818,0.303125,0.308265,0.930124,0,0
0.741875,2.45818,0.303125,0.308265,0.930124,0,0
0.743125,2.51158,0.303121,0.301707,0.929965,0,0
0.744375,2.51158,0.303121,0.301707,0.929965,0,0
0.745625,2.56189,0.303118,0.295779,0.929773,0,0
0.746875,2.56189,0.303118,0.295779,0.929773,0,0
0.748125,2.60834,0.303116,0.290509,0.929556,0,0
0.749375,2.60834,0.303116,0.290509,0.929556,0,0
0.750625,2.65039,0.303115,0.285899,0.929326,0,0
0.751875,2.65039,0.303115,0.285899,0.929326,0,0
0.753125,2.6877,0.303115,0.28193,0.929091,0,0
0.754375,2.6877,0.303115,0.28193,0.929091,0,0
0.755625,2.72017,0.303116,0.278566,0.928862,0,0
0.756875,2.72017,0.303116,0.278566,0.928862,0,0
0.758125,2.74789,0.303118,0.275758,0.928644,0,0
0.759375,2.74789,0.303118,0.275758,0.928644,0,0
0.760625,2.77111,0.30312,0.273449,0.928445,0,0
0.761875,2.77111,0.30312,0.273449,0.928445,0,0
0.763125,2.79022,0.303123,0.271579,0.928267,0,0
0.764375,2.79022,0.303123,0.271579,0.928267,0,0
0.765625,2.80567,0.303126,0.270086,0.928112,0,0
0.766875,2.80567,0.303126,0.270086,0.928112,0,0
0.768125,2.81793,0.303128,0.268912,0.92798,0,0
0.769375,2.81793,0.303128,0.268912,0.92798,0,0
0.770625,2.82752,0.30313,0.268003,0.927871,0,0
0.771875,2.82752,0.30313,0.268003,0.927871,0,0
0.773125,2.83487,0.303133,0.26731,0.927782,0,0
0.774375,2.83487,0.303133,0.26731,0.927782,0,0
0.775625,2.84043,0.303134,0.266788,0.92771,0,0
0.776875,2.84043,0.303134,0.266788,0.92771,0,0
0.778125,2.84455,0.303136,0.266403,0.927655,0,0
0.779375,2.84455,0.303136,0.266403,0.927655,0,0
0.780625,2.84756,0.303137,0.266123,0.927612,0,0
0.781875,2.84756,0.303137,0.266123,0.927612,0,0
0.783125,2.84971,0.303138,0.265923,0.92758,0,0
0.784375,2.84971,0.303138,0.265923,0.92758,0,0
0.785625,2.85121,0.303139,0.265783,0.927556,0,0
0.786875,2.85121,0.303139,0.265783,0.927556,0,0
0.788125,2.85225,0.30314,0.265687,0.927539,0,0
0.789375,2.85225,0.30314,0.265687,0.927539,0,0
0.790625,2.85294,0.30314,0.265623,0.927526,0,0
0.791875,2.85294,0.30314,0.265623,0.927526,0,0
0.793125,2.85339,0.30314,0.265582,0.927518,0,0
0.794375,2.85339,0.30314,0.265582,0.927518,0,0
0.795625,2.85366,0.303141,0.265557,0.927512,0,0
0.796875,2.85366,0.303141,0.265557,0.927512,0,0
0.798125,2.85382,0.303141,0.265542,0.927508,0,0