/*--------------------------------*- C++ -*----------------------------------*\
| =========                 |                                                 |
| \\      /  F ield         | OpenFOAM: The Open Source CFD Toolbox           |
|  \\    /   O peration     | Version:  2412                                  |
|   \\  /    A nd           | Website:  www.openfoam.com                      |
|    \\/     M anipulation  |                                                 |
\*---------------------------------------------------------------------------*/
FoamFile
{
    version     2.0;
    format      ascii;
    arch        "LSB;label=32;scalar=64";
    class       volScalarField;
    location    "0.15";
    object      p;
}
// * * * * * * * * * * * * * * * * * * * * * * * * * * * * * * * * * * * * * //

dimensions      [1 -1 -2 0 0 0 0];

internalField   nonuniform List<scalar> 
100
(
5.6511
5.57611
5.4481
5.57185
5.70929
5.46739
5.43236
5.56794
4.74066
2.05119
0.320067
0.292758
0.272646
0.25197
0.231412
0.211315
0.191919
0.173412
0.155929
0.139561
0.124363
0.11036
0.0975525
0.0859194
0.0754242
0.0660162
0.057635
0.0502127
0.0436772
0.0379544
0.0329711
0.0286562
0.0249428
0.0217685
0.0190746
0.0168044
0.0149025
0.0133159
0.0119949
0.0108931
0.0099684
0.00918468
0.00851181
0.007928
0.00742215
0.00699012
0.00663899
0.00638779
0.00624453
0.00614368
0.00614356
0.00624396
0.00638786
0.00663904
0.00699013
0.00742215
0.007928
0.00851181
0.00918468
0.0099684
0.0108931
0.0119949
0.0133159
0.0149025
0.0168044
0.0190746
0.0217685
0.0249428
0.0286562
0.0329711
0.0379544
0.0436772
0.0502127
0.057635
0.0660162
0.0754242
0.0859194
0.0975525
0.11036
0.124363
0.139561
0.155929
0.173412
0.191919
0.211315
0.231412
0.25197
0.272645
0.292768
0.319953
2.0447
4.74016
5.56252
5.44368
5.47574
5.69854
5.56642
5.45768
5.57373
5.65138
)
;

boundaryField
{
    sides
    {
        type            zeroGradient;
    }
    empty1
    {
        type            empty;
    }
    empty2
    {
        type            empty;
    }
}


// ************************************************************************* //
