/*--------------------------------*- C++ -*----------------------------------*\
| =========                 |                                                 |
| \\      /  F ield         | OpenFOAM: The Open Source CFD Toolbox           |
|  \\    /   O peration     | Version:  2406                                  |
|   \\  /    A nd           | Website:  www.openfoam.com                      |
|    \\/     M anipulation  |                                                 |
\*---------------------------------------------------------------------------*/
FoamFile
{
    version     2.0;
    format      ascii;
    arch        "LSB;label=32;scalar=64";
    class       volScalarField;
    location    "0.25";
    object      p;
}
// * * * * * * * * * * * * * * * * * * * * * * * * * * * * * * * * * * * * * //

dimensions      [1 -1 -2 0 0 0 0];

internalField   nonuniform List<scalar> 
100
(
0.99999
0.999985
0.99997
0.999942
0.999888
0.999788
0.999612
0.999309
0.998806
0.998
0.996749
0.994878
0.992176
0.988407
0.98333
0.976717
0.968377
0.958171
0.946032
0.931959
0.916023
0.898349
0.879105
0.858488
0.836707
0.813976
0.790501
0.766475
0.742074
0.717458
0.692767
0.668122
0.643628
0.619374
0.595436
0.571877
0.548749
0.526093
0.503945
0.482333
0.461279
0.440803
0.420924
0.401664
0.383057
0.365167
0.348118
0.332183
0.317922
0.306517
0.299634
0.298479
0.300175
0.301767
0.302499
0.302732
0.302793
0.302814
0.30283
0.302846
0.302865
0.302888
0.302915
0.302948
0.302985
0.303024
0.303059
0.303086
0.3031
0.3031
0.303086
0.303059
0.303023
0.302984
0.302949
0.302922
0.302908
0.302904
0.302903
0.302897
0.302876
0.302829
0.302741
0.302587
0.302324
0.30188
0.301134
0.299882
0.297784
0.294279
0.288436
0.278711
0.262524
0.235668
0.194883
0.14956
0.118803
0.105785
0.101664
0.100572
)
;

boundaryField
{
    sides
    {
        type            zeroGradient;
    }
    empty1
    {
        type            empty;
    }
    empty2
    {
        type            empty;
    }
}


// ************************************************************************* //
