/*--------------------------------*- C++ -*----------------------------------*\
| =========                 |                                                 |
| \\      /  F ield         | OpenFOAM: The Open Source CFD Toolbox           |
|  \\    /   O peration     | Version:  2406                                  |
|   \\  /    A nd           | Website:  www.openfoam.com                      |
|    \\/     M anipulation  |                                                 |
\*---------------------------------------------------------------------------*/
FoamFile
{
    version     2.0;
    format      ascii;
    arch        "LSB;label=32;scalar=64";
    class       volScalarField;
    location    "0.25";
    object      T;
}
// * * * * * * * * * * * * * * * * * * * * * * * * * * * * * * * * * * * * * //

dimensions      [0 0 0 1 0 0 0];

internalField   nonuniform List<scalar> 
100
(
2.49999
2.49999
2.49998
2.49996
2.49991
2.49984
2.49971
2.49948
2.4991
2.4985
2.49756
2.49617
2.49416
2.49137
2.4876
2.4827
2.4765
2.4689
2.45981
2.4492
2.43708
2.42351
2.40854
2.39229
2.37484
2.35631
2.33681
2.31644
2.29531
2.27349
2.25108
2.22815
2.20476
2.18098
2.15685
2.13242
2.10773
2.08281
2.05771
2.03244
2.00704
1.98153
1.95594
1.93032
1.90473
1.87929
1.85425
1.8301
1.80803
1.79028
1.7804
1.77949
1.7827
1.78562
1.78724
1.78817
1.7889
1.78967
1.79056
1.79159
1.79275
1.79405
1.79568
1.79817
1.80266
1.81108
1.82615
1.85117
1.88956
1.94429
2.01703
2.10741
2.21229
2.32569
2.43964
2.54578
2.63741
2.71076
2.76536
2.80319
2.82759
2.84218
2.8501
2.85377
2.8548
2.85412
2.85209
2.84854
2.84275
2.83328
2.81741
2.79017
2.7418
2.65249
2.49579
2.28719
2.11733
2.03706
2.01071
2.00368
)
;

boundaryField
{
    sides
    {
        type            zeroGradient;
    }
    empty1
    {
        type            empty;
    }
    empty2
    {
        type            empty;
    }
}


// ************************************************************************* //
