/*--------------------------------*- C++ -*----------------------------------*\
| =========                 |                                                 |
| \\      /  F ield         | OpenFOAM: The Open Source CFD Toolbox           |
|  \\    /   O peration     | Version:  2406                                  |
|   \\  /    A nd           | Website:  www.openfoam.com                      |
|    \\/     M anipulation  |                                                 |
\*---------------------------------------------------------------------------*/
FoamFile
{
    version     2.0;
    format      ascii;
    arch        "LSB;label=32;scalar=64";
    class       volVectorField;
    location    "0.25";
    object      U;
}
// * * * * * * * * * * * * * * * * * * * * * * * * * * * * * * * * * * * * * //

dimensions      [0 1 -1 0 0 0 0];

internalField   nonuniform List<vector> 
100
(
(3.17199e-06 0 0)
(1.11537e-05 0 0)
(2.48275e-05 0 0)
(5.03423e-05 0 0)
(9.79605e-05 0 0)
(0.000184757 0 0)
(0.000338305 0 0)
(0.000601394 0 0)
(0.00103751 0 0)
(0.00173642 0 0)
(0.00281863 0 0)
(0.00443725 0 0)
(0.00677561 0 0)
(0.0100398 0 0)
(0.0144461 0 0)
(0.0202051 0 0)
(0.0275053 0 0)
(0.036498 0 0)
(0.0472881 0 0)
(0.0599302 0 0)
(0.0744298 0 0)
(0.0907503 0 0)
(0.108821 0 0)
(0.128547 0 0)
(0.14982 0 0)
(0.172521 0 0)
(0.196533 0 0)
(0.221741 0 0)
(0.248038 0 0)
(0.275324 0 0)
(0.303507 0 0)
(0.332505 0 0)
(0.362247 0 0)
(0.392667 0 0)
(0.423708 0 0)
(0.455322 0 0)
(0.487463 0 0)
(0.520096 0 0)
(0.553184 0 0)
(0.5867 0 0)
(0.620613 0 0)
(0.654896 0 0)
(0.689513 0 0)
(0.724415 0 0)
(0.75952 0 0)
(0.794666 0 0)
(0.829523 0 0)
(0.863369 0 0)
(0.894701 0 0)
(0.92041 0 0)
(0.936055 0 0)
(0.938481 0 0)
(0.934412 0 0)
(0.930719 0 0)
(0.929051 0 0)
(0.928532 0 0)
(0.9284 0 0)
(0.92836 0 0)
(0.928332 0 0)
(0.928303 0 0)
(0.928273 0 0)
(0.928253 0 0)
(0.928264 0 0)
(0.928341 0 0)
(0.928525 0 0)
(0.928857 0 0)
(0.929357 0 0)
(0.930014 0 0)
(0.930778 0 0)
(0.93157 0 0)
(0.932293 0 0)
(0.932843 0 0)
(0.933127 0 0)
(0.933083 0 0)
(0.932697 0 0)
(0.932021 0 0)
(0.931161 0 0)
(0.930244 0 0)
(0.92938 0 0)
(0.928631 0 0)
(0.928006 0 0)
(0.927469 0 0)
(0.926946 0 0)
(0.92633 0 0)
(0.925466 0 0)
(0.924119 0 0)
(0.921916 0 0)
(0.918245 0 0)
(0.912083 0 0)
(0.901702 0 0)
(0.884127 0 0)
(0.854099 0 0)
(0.801797 0 0)
(0.707773 0 0)
(0.544284 0 0)
(0.323438 0 0)
(0.137671 0 0)
(0.0451205 0 0)
(0.0128514 0 0)
(0.00267071 0 0)
)
;

boundaryField
{
    sides
    {
        type            fixedValue;
        value           uniform (0 0 0);
    }
    empty1
    {
        type            empty;
    }
    empty2
    {
        type            empty;
    }
}


// ************************************************************************* //
