x,T,p,rho,U_0,U_1,U_2
0.000625,2.49999,0.99999,0.999937,3.17199e-06,0,0
0.001875,2.49999,0.99999,0.999937,3.17199e-06,0,0
0.003125,2.49999,0.99999,0.999937,3.17199e-06,0,0
0.004375,2.49999,0.99999,0.999937,3.17199e-06,0,0
0.005625,2.49999,0.99999,0.999937,3.17199e-06,0,0
0.006875,2.49999,0.99999,0.999937,3.17199e-06,0,0
0.008125,2.49999,0.99999,0.999937,3.17199e-06,0,0
0.009375,2.49999,0.99999,0.999937,3.17199e-06,0,0
0.010625,2.49999,0.999985,0.999933,1.11537e-05,0,0
0.011875,2.49999,0.999985,0.999933,1.11537e-05,0,0
0.013125,2.49999,0.999985,0.999933,1.11537e-05,0,0
0.014375,2.49999,0.999985,0.999933,1.11537e-05,0,0
0.015625,2.49999,0.999985,0.999933,1.11537e-05,0,0
0.016875,2.49999,0.999985,0.999933,1.11537e-05,0,0
0.018125,2.49999,0.999985,0.999933,1.11537e-05,0,0
0.019375,2.49999,0.999985,0.999933,1.11537e-05,0,0
0.020625,2.49998,0.99997,0.999923,2.48275e-05,0,0
0.021875,2.49998,0.99997,0.999923,2.48275e-05,0,0
0.023125,2.49998,0.99997,0.999923,2.48275e-05,0,0
0.024375,2.49998,0.99997,0.999923,2.48275e-05,0,0
0.025625,2.49998,0.99997,0.999923,2.48275e-05,0,0
0.026875,2.49998,0.99997,0.999923,2.48275e-05,0,0
0.028125,2.49998,0.99997,0.999923,2.48275e-05,0,0
0.029375,2.49998,0.99997,0.999923,2.48275e-05,0,0
0.030625,2.49996,0.999942,0.999903,5.03423e-05,0,0
0.031875,2.49996,0.999942,0.999903,5.03423e-05,0,0
0.033125,2.49996,0.999942,0.999903,5.03423e-05,0,0
0.034375,2.49996,0.999942,0.999903,5.03423e-05,0,0
0.035625,2.49996,0.999942,0.999903,5.03423e-05,0,0
0.036875,2.49996,0.999942,0.999903,5.03423e-05,0,0
0.038125,2.49996,0.999942,0.999903,5.03423e-05,0,0
0.039375,2.49996,0.999942,0.999903,5.03423e-05,0,0
0.040625,2.49991,0.999888,0.999865,9.79605e-05,0,0
0.041875,2.49991,0.999888,0.999865,9.79605e-05,0,0
0.043125,2.49991,0.999888,0.999865,9.79605e-05,0,0
0.044375,2.49991,0.999888,0.999865,9.79605e-05,0,0
0.045625,2.49991,0.999888,0.999865,9.79605e-05,0,0
0.046875,2.49991,0.999888,0.999865,9.79605e-05,0,0
0.048125,2.49991,0.999888,0.999865,9.79605e-05,0,0
0.049375,2.49991,0.999888,0.999865,9.79605e-05,0,0
0.050625,2.49984,0.999788,0.999796,0.000184757,0,0
0.051875,2.49984,0.999788,0.999796,0.000184757,0,0
0.053125,2.49984,0.999788,0.999796,0.000184757,0,0
0.054375,2.49984,0.999788,0.999796,0.000184757,0,0
0.055625,2.49984,0.999788,0.999796,0.000184757,0,0
0.056875,2.49984,0.999788,0.999796,0.000184757,0,0
0.058125,2.49984,0.999788,0.999796,0.000184757,0,0
0.059375,2.49984,0.999788,0.999796,0.000184757,0,0
0.060625,2.49971,0.999612,0.999673,0.000338305,0,0
0.061875,2.49971,0.999612,0.999673,0.000338305,0,0
0.063125,2.49971,0.999612,0.999673,0.000338305,0,0
0.064375,2.49971,0.999612,0.999673,0.000338305,0,0
0.065625,2.49971,0.999612,0.999673,0.000338305,0,0
0.066875,2.49971,0.999612,0.999673,0.000338305,0,0
0.068125,2.49971,0.999612,0.999673,0.000338305,0,0
0.069375,2.49971,0.999612,0.999673,0.000338305,0,0
0.070625,2.49948,0.999309,0.999461,0.000601394,0,0
0.071875,2.49948,0.999309,0.999461,0.000601394,0,0
0.073125,2.49948,0.999309,0.999461,0.000601394,0,0
0.074375,2.49948,0.999309,0.999461,0.000601394,0,0
0.075625,2.49948,0.999309,0.999461,0.000601394,0,0
0.076875,2.49948,0.999309,0.999461,0.000601394,0,0
0.078125,2.49948,0.999309,0.999461,0.000601394,0,0
0.079375,2.49948,0.999309,0.999461,0.000601394,0,0
0.080625,2.4991,0.998806,0.999109,0.00103751,0,0
0.081875,2.4991,0.998806,0.999109,0.00103751,0,0
0.083125,2.4991,0.998806,0.999109,0.00103751,0,0
0.084375,2.4991,0.998806,0.999109,0.00103751,0,0
0.085625,2.4991,0.998806,0.999109,0.00103751,0,0
0.086875,2.4991,0.998806,0.999109,0.00103751,0,0
0.088125,2.4991,0.998806,0.999109,0.00103751,0,0
0.089375,2.4991,0.998806,0.999109,0.00103751,0,0
0.090625,2.4985,0.998,0.998543,0.00173642,0,0
0.091875,2.4985,0.998,0.998543,0.00173642,0,0
0.093125,2.4985,0.998,0.998543,0.00173642,0,0
0.094375,2.4985,0.998,0.998543,0.00173642,0,0
0.095625,2.4985,0.998,0.998543,0.00173642,0,0
0.096875,2.4985,0.998,0.998543,0.00173642,0,0
0.098125,2.4985,0.998,0.998543,0.00173642,0,0
0.099375,2.4985,0.998,0.998543,0.00173642,0,0
0.100625,2.49756,0.996749,0.997665,0.00281863,0,0
0.101875,2.49756,0.996749,0.997665,0.00281863,0,0
0.103125,2.49756,0.996749,0.997665,0.00281863,0,0
0.104375,2.49756,0.996749,0.997665,0.00281863,0,0
0.105625,2.49756,0.996749,0.997665,0.00281863,0,0
0.106875,2.49756,0.996749,0.997665,0.00281863,0,0
0.108125,2.49756,0.996749,0.997665,0.00281863,0,0
0.109375,2.49756,0.996749,0.997665,0.00281863,0,0
0.110625,2.49617,0.994878,0.996348,0.00443725,0,0
0.111875,2.49617,0.994878,0.996348,0.00443725,0,0
0.113125,2.49617,0.994878,0.996348,0.00443725,0,0
0.114375,2.49617,0.994878,0.996348,0.00443725,0,0
0.115625,2.49617,0.994878,0.996348,0.00443725,0,0
0.116875,2.49617,0.994878,0.996348,0.00443725,0,0
0.118125,2.49617,0.994878,0.996348,0.00443725,0,0
0.119375,2.49617,0.994878,0.996348,0.00443725,0,0
0.120625,2.49416,0.992176,0.994441,0.00677561,0,0
0.121875,2.49416,0.992176,0.994441,0.00677561,0,0
0.123125,2.49416,0.992176,0.994441,0.00677561,0,0
0.124375,2.49416,0.992176,0.994441,0.00677561,0,0
0.125625,2.49416,0.992176,0.994441,0.00677561,0,0
0.126875,2.49416,0.992176,0.994441,0.00677561,0,0
0.128125,2.49416,0.992176,0.994441,0.00677561,0,0
0.129375,2.49416,0.992176,0.994441,0.00677561,0,0
0.130625,2.49137,0.988407,0.991775,0.0100398,0,0
0.131875,2.49137,0.988407,0.991775,0.0100398,0,0
0.133125,2.49137,0.988407,0.991775,0.0100398,0,0
0.134375,2.49137,0.988407,0.991775,0.0100398,0,0
0.135625,2.49137,0.988407,0.991775,0.0100398,0,0
0.136875,2.49137,0.988407,0.991775,0.0100398,0,0
0.138125,2.49137,0.988407,0.991775,0.0100398,0,0
0.139375,2.49137,0.988407,0.991775,0.0100398,0,0
0.140625,2.4876,0.98333,0.988174,0.0144461,0,0
0.141875,2.4876,0.98333,0.988174,0.0144461,0,0
0.143125,2.4876,0.98333,0.988174,0.0144461,0,0
0.144375,2.4876,0.98333,0.988174,0.0144461,0,0
0.145625,2.4876,0.98333,0.988174,0.0144461,0,0
0.146875,2.4876,0.98333,0.988174,0.0144461,0,0
0.148125,2.4876,0.98333,0.988174,0.0144461,0,0
0.149375,2.4876,0.98333,0.988174,0.0144461,0,0
0.150625,2.4827,0.976717,0.983468,0.0202051,0,0
0.151875,2.4827,0.976717,0.983468,0.0202051,0,0
0.153125,2.4827,0.976717,0.983468,0.0202051,0,0
0.154375,2.4827,0.976717,0.983468,0.0202051,0,0
0.155625,2.4827,0.976717,0.983468,0.0202051,0,0
0.156875,2.4827,0.976717,0.983468,0.0202051,0,0
0.158125,2.4827,0.976717,0.983468,0.0202051,0,0
0.159375,2.4827,0.976717,0.983468,0.0202051,0,0
0.160625,2.4765,0.968377,0.977509,0.0275053,0,0
0.161875,2.4765,0.968377,0.977509,0.0275053,0,0
0.163125,2.4765,0.968377,0.977509,0.0275053,0,0
0.164375,2.4765,0.968377,0.977509,0.0275053,0,0
0.165625,2.4765,0.968377,0.977509,0.0275053,0,0
0.166875,2.4765,0.968377,0.977509,0.0275053,0,0
0.168125,2.4765,0.968377,0.977509,0.0275053,0,0
0.169375,2.4765,0.968377,0.977509,0.0275053,0,0
0.170625,2.4689,0.958171,0.970187,0.036498,0,0
0.171875,2.4689,0.958171,0.970187,0.036498,0,0
0.173125,2.4689,0.958171,0.970187,0.036498,0,0
0.174375,2.4689,0.958171,0.970187,0.036498,0,0
0.175625,2.4689,0.958171,0.970187,0.036498,0,0
0.176875,2.4689,0.958171,0.970187,0.036498,0,0
0.178125,2.4689,0.958171,0.970187,0.036498,0,0
0.179375,2.4689,0.958171,0.970187,0.036498,0,0
0.180625,2.45981,0.946032,0.961436,0.0472881,0,0
0.181875,2.45981,0.946032,0.961436,0.0472881,0,0
0.183125,2.45981,0.946032,0.961436,0.0472881,0,0
0.184375,2.45981,0.946032,0.961436,0.0472881,0,0
0.185625,2.45981,0.946032,0.961436,0.0472881,0,0
0.186875,2.45981,0.946032,0.961436,0.0472881,0,0
0.188125,2.45981,0.946032,0.961436,0.0472881,0,0
0.189375,2.45981,0.946032,0.961436,0.0472881,0,0
0.190625,2.4492,0.931959,0.951236,0.0599302,0,0
0.191875,2.4492,0.931959,0.951236,0.0599302,0,0
0.193125,2.4492,0.931959,0.951236,0.0599302,0,0
0.194375,2.4492,0.931959,0.951236,0.0599302,0,0
0.195625,2.4492,0.931959,0.951236,0.0599302,0,0
0.196875,2.4492,0.931959,0.951236,0.0599302,0,0
0.198125,2.4492,0.931959,0.951236,0.0599302,0,0
0.199375,2.4492,0.931959,0.951236,0.0599302,0,0
0.200625,2.43708,0.916023,0.939618,0.0744298,0,0
0.201875,2.43708,0.916023,0.939618,0.0744298,0,0
0.203125,2.43708,0.916023,0.939618,0.0744298,0,0
0.204375,2.43708,0.916023,0.939618,0.0744298,0,0
0.205625,2.43708,0.916023,0.939618,0.0744298,0,0
0.206875,2.43708,0.916023,0.939618,0.0744298,0,0
0.208125,2.43708,0.916023,0.939618,0.0744298,0,0
0.209375,2.43708,0.916023,0.939618,0.0744298,0,0
0.210625,2.42351,0.898349,0.926651,0.0907503,0,0
0.211875,2.42351,0.898349,0.926651,0.0907503,0,0
0.213125,2.42351,0.898349,0.926651,0.0907503,0,0
0.214375,2.42351,0.898349,0.926651,0.0907503,0,0
0.215625,2.42351,0.898349,0.926651,0.0907503,0,0
0.216875,2.42351,0.898349,0.926651,0.0907503,0,0
0.218125,2.42351,0.898349,0.926651,0.0907503,0,0
0.219375,2.42351,0.898349,0.926651,0.0907503,0,0
0.220625,2.40854,0.879105,0.912434,0.108821,0,0
0.221875,2.40854,0.879105,0.912434,0.108821,0,0
0.223125,2.40854,0.879105,0.912434,0.108821,0,0
0.224375,2.40854,0.879105,0.912434,0.108821,0,0
0.225625,2.40854,0.879105,0.912434,0.108821,0,0
0.226875,2.40854,0.879105,0.912434,0.108821,0,0
0.228125,2.40854,0.879105,0.912434,0.108821,0,0
0.229375,2.40854,0.879105,0.912434,0.108821,0,0
0.230625,2.39229,0.858488,0.897091,0.128547,0,0
0.231875,2.39229,0.858488,0.897091,0.128547,0,0
0.233125,2.39229,0.858488,0.897091,0.128547,0,0
0.234375,2.39229,0.858488,0.897091,0.128547,0,0
0.235625,2.39229,0.858488,0.897091,0.128547,0,0
0.236875,2.39229,0.858488,0.897091,0.128547,0,0
0.238125,2.39229,0.858488,0.897091,0.128547,0,0
0.239375,2.39229,0.858488,0.897091,0.128547,0,0
0.240625,2.37484,0.836707,0.880755,0.14982,0,0
0.241875,2.37484,0.836707,0.880755,0.14982,0,0
0.243125,2.37484,0.836707,0.880755,0.14982,0,0
0.244375,2.37484,0.836707,0.880755,0.14982,0,0
0.245625,2.37484,0.836707,0.880755,0.14982,0,0
0.246875,2.37484,0.836707,0.880755,0.14982,0,0
0.248125,2.37484,0.836707,0.880755,0.14982,0,0
0.249375,2.37484,0.836707,0.880755,0.14982,0,0
0.250625,2.35631,0.813976,0.863565,0.172521,0,0
0.251875,2.35631,0.813976,0.863565,0.172521,0,0
0.253125,2.35631,0.813976,0.863565,0.172521,0,0
0.254375,2.35631,0.813976,0.863565,0.172521,0,0
0.255625,2.35631,0.813976,0.863565,0.172521,0,0
0.256875,2.35631,0.813976,0.863565,0.172521,0,0
0.258125,2.35631,0.813976,0.863565,0.172521,0,0
0.259375,2.35631,0.813976,0.863565,0.172521,0,0
0.260625,2.33681,0.790501,0.845658,0.196533,0,0
0.261875,2.33681,0.790501,0.845658,0.196533,0,0
0.263125,2.33681,0.790501,0.845658,0.196533,0,0
0.264375,2.33681,0.790501,0.845658,0.196533,0,0
0.265625,2.33681,0.790501,0.845658,0.196533,0,0
0.266875,2.33681,0.790501,0.845658,0.196533,0,0
0.268125,2.33681,0.790501,0.845658,0.196533,0,0
0.269375,2.33681,0.790501,0.845658,0.196533,0,0
0.270625,2.31644,0.766475,0.827164,0.221741,0,0
0.271875,2.31644,0.766475,0.827164,0.221741,0,0
0.273125,2.31644,0.766475,0.827164,0.221741,0,0
0.274375,2.31644,0.766475,0.827164,0.221741,0,0
0.275625,2.31644,0.766475,0.827164,0.221741,0,0
0.276875,2.31644,0.766475,0.827164,0.221741,0,0
0.278125,2.31644,0.766475,0.827164,0.221741,0,0
0.279375,2.31644,0.766475,0.827164,0.221741,0,0
0.280625,2.29531,0.742074,0.808206,0.248038,0,0
0.281875,2.29531,0.742074,0.808206,0.248038,0,0
0.283125,2.29531,0.742074,0.808206,0.248038,0,0
0.284375,2.29531,0.742074,0.808206,0.248038,0,0
0.285625,2.29531,0.742074,0.808206,0.248038,0,0
0.286875,2.29531,0.742074,0.808206,0.248038,0,0
0.288125,2.29531,0.742074,0.808206,0.248038,0,0
0.289375,2.29531,0.742074,0.808206,0.248038,0,0
0.290625,2.27349,0.717458,0.788894,0.275324,0,0
0.291875,2.27349,0.717458,0.788894,0.275324,0,0
0.293125,2.27349,0.717458,0.788894,0.275324,0,0
0.294375,2.27349,0.717458,0.788894,0.275324,0,0
0.295625,2.27349,0.717458,0.788894,0.275324,0,0
0.296875,2.27349,0.717458,0.788894,0.275324,0,0
0.298125,2.27349,0.717458,0.788894,0.275324,0,0
0.299375,2.27349,0.717458,0.788894,0.275324,0,0
0.300625,2.25108,0.692767,0.769327,0.303507,0,0
0.301875,2.25108,0.692767,0.769327,0.303507,0,0
0.303125,2.25108,0.692767,0.769327,0.303507,0,0
0.304375,2.25108,0.692767,0.769327,0.303507,0,0
0.305625,2.25108,0.692767,0.769327,0.303507,0,0
0.306875,2.25108,0.692767,0.769327,0.303507,0,0
0.308125,2.25108,0.692767,0.769327,0.303507,0,0
0.309375,2.25108,0.692767,0.769327,0.303507,0,0
0.310625,2.22815,0.668122,0.749595,0.332505,0,0
0.311875,2.22815,0.668122,0.749595,0.332505,0,0
0.313125,2.22815,0.668122,0.749595,0.332505,0,0
0.314375,2.22815,0.668122,0.749595,0.332505,0,0
0.315625,2.22815,0.668122,0.749595,0.332505,0,0
0.316875,2.22815,0.668122,0.749595,0.332505,0,0
0.318125,2.22815,0.668122,0.749595,0.332505,0,0
0.319375,2.22815,0.668122,0.749595,0.332505,0,0
0.320625,2.20476,0.643628,0.729774,0.362247,0,0
0.321875,2.20476,0.643628,0.729774,0.362247,0,0
0.323125,2.20476,0.643628,0.729774,0.362247,0,0
0.324375,2.20476,0.643628,0.729774,0.362247,0,0
0.325625,2.20476,0.643628,0.729774,0.362247,0,0
0.326875,2.20476,0.643628,0.729774,0.362247,0,0
0.328125,2.20476,0.643628,0.729774,0.362247,0,0
0.329375,2.20476,0.643628,0.729774,0.362247,0,0
0.330625,2.18098,0.619374,0.709933,0.392667,0,0
0.331875,2.18098,0.619374,0.709933,0.392667,0,0
0.333125,2.18098,0.619374,0.709933,0.392667,0,0
0.334375,2.18098,0.619374,0.709933,0.392667,0,0
0.335625,2.18098,0.619374,0.709933,0.392667,0,0
0.336875,2.18098,0.619374,0.709933,0.392667,0,0
0.338125,2.18098,0.619374,0.709933,0.392667,0,0
0.339375,2.18098,0.619374,0.709933,0.392667,0,0
0.340625,2.15685,0.595436,0.690131,0.423708,0,0
0.341875,2.15685,0.595436,0.690131,0.423708,0,0
0.343125,2.15685,0.595436,0.690131,0.423708,0,0
0.344375,2.15685,0.595436,0.690131,0.423708,0,0
0.345625,2.15685,0.595436,0.690131,0.423708,0,0
0.346875,2.15685,0.595436,0.690131,0.423708,0,0
0.348125,2.15685,0.595436,0.690131,0.423708,0,0
0.349375,2.15685,0.595436,0.690131,0.423708,0,0
0.350625,2.13242,0.571877,0.670419,0.455322,0,0
0.351875,2.13242,0.571877,0.670419,0.455322,0,0
0.353125,2.13242,0.571877,0.670419,0.455322,0,0
0.354375,2.13242,0.571877,0.670419,0.455322,0,0
0.355625,2.13242,0.571877,0.670419,0.455322,0,0
0.356875,2.13242,0.571877,0.670419,0.455322,0,0
0.358125,2.13242,0.571877,0.670419,0.455322,0,0
0.359375,2.13242,0.571877,0.670419,0.455322,0,0
0.360625,2.10773,0.548749,0.650841,0.487463,0,0
0.361875,2.10773,0.548749,0.650841,0.487463,0,0
0.363125,2.10773,0.548749,0.650841,0.487463,0,0
0.364375,2.10773,0.548749,0.650841,0.487463,0,0
0.365625,2.10773,0.548749,0.650841,0.487463,0,0
0.366875,2.10773,0.548749,0.650841,0.487463,0,0
0.368125,2.10773,0.548749,0.650841,0.487463,0,0
0.369375,2.10773,0.548749,0.650841,0.487463,0,0
0.370625,2.08281,0.526093,0.631434,0.520096,0,0
0.371875,2.08281,0.526093,0.631434,0.520096,0,0
0.373125,2.08281,0.526093,0.631434,0.520096,0,0
0.374375,2.08281,0.526093,0.631434,0.520096,0,0
0.375625,2.08281,0.526093,0.631434,0.520096,0,0
0.376875,2.08281,0.526093,0.631434,0.520096,0,0
0.378125,2.08281,0.526093,0.631434,0.520096,0,0
0.379375,2.08281,0.526093,0.631434,0.520096,0,0
0.380625,2.05771,0.503945,0.61223,0.553184,0,0
0.381875,2.05771,0.503945,0.61223,0.553184,0,0
0.383125,2.05771,0.503945,0.61223,0.553184,0,0
0.384375,2.05771,0.503945,0.61223,0.553184,0,0
0.385625,2.05771,0.503945,0.61223,0.553184,0,0
0.386875,2.05771,0.503945,0.61223,0.553184,0,0
0.388125,2.05771,0.503945,0.61223,0.553184,0,0
0.389375,2.05771,0.503945,0.61223,0.553184,0,0
0.390625,2.03244,0.482333,0.593259,0.5867,0,0
0.391875,2.03244,0.482333,0.593259,0.5867,0,0
0.393125,2.03244,0.482333,0.593259,0.5867,0,0
0.394375,2.03244,0.482333,0.593259,0.5867,0,0
0.395625,2.03244,0.482333,0.593259,0.5867,0,0
0.396875,2.03244,0.482333,0.593259,0.5867,0,0
0.398125,2.03244,0.482333,0.593259,0.5867,0,0
0.399375,2.03244,0.482333,0.593259,0.5867,0,0
0.400625,2.00704,0.461279,0.574544,0.620613,0,0
0.401875,2.00704,0.461279,0.574544,0.620613,0,0
0.403125,2.00704,0.461279,0.574544,0.620613,0,0
0.404375,2.00704,0.461279,0.574544,0.620613,0,0
0.405625,2.00704,0.461279,0.574544,0.620613,0,0
0.406875,2.00704,0.461279,0.574544,0.620613,0,0
0.408125,2.00704,0.461279,0.574544,0.620613,0,0
0.409375,2.00704,0.461279,0.574544,0.620613,0,0
0.410625,1.98153,0.440803,0.556109,0.654896,0,0
0.411875,1.98153,0.440803,0.556109,0.654896,0,0
0.413125,1.98153,0.440803,0.556109,0.654896,0,0
0.414375,1.98153,0.440803,0.556109,0.654896,0,0
0.415625,1.98153,0.440803,0.556109,0.654896,0,0
0.416875,1.98153,0.440803,0.556109,0.654896,0,0
0.418125,1.98153,0.440803,0.556109,0.654896,0,0
0.419375,1.98153,0.440803,0.556109,0.654896,0,0
0.420625,1.95594,0.420924,0.537976,0.689513,0,0
0.421875,1.95594,0.420924,0.537976,0.689513,0,0
0.423125,1.95594,0.420924,0.537976,0.689513,0,0
0.424375,1.95594,0.420924,0.537976,0.689513,0,0
0.425625,1.95594,0.420924,0.537976,0.689513,0,0
0.426875,1.95594,0.420924,0.537976,0.689513,0,0
0.428125,1.95594,0.420924,0.537976,0.689513,0,0
0.429375,1.95594,0.420924,0.537976,0.689513,0,0
0.430625,1.93032,0.401664,0.520174,0.724415,0,0
0.431875,1.93032,0.401664,0.520174,0.724415,0,0
0.433125,1.93032,0.401664,0.520174,0.724415,0,0
0.434375,1.93032,0.401664,0.520174,0.724415,0,0
0.435625,1.93032,0.401664,0.520174,0.724415,0,0
0.436875,1.93032,0.401664,0.520174,0.724415,0,0
0.438125,1.93032,0.401664,0.520174,0.724415,0,0
0.439375,1.93032,0.401664,0.520174,0.724415,0,0
0.440625,1.90473,0.383057,0.502742,0.75952,0,0
0.441875,1.90473,0.383057,0.502742,0.75952,0,0
0.443125,1.90473,0.383057,0.502742,0.75952,0,0
0.444375,1.90473,0.383057,0.502742,0.75952,0,0
0.445625,1.90473,0.383057,0.502742,0.75952,0,0
0.446875,1.90473,0.383057,0.502742,0.75952,0,0
0.448125,1.90473,0.383057,0.502742,0.75952,0,0
0.449375,1.90473,0.383057,0.502742,0.75952,0,0
0.450625,1.87929,0.365167,0.48575,0.794666,0,0
0.451875,1.87929,0.365167,0.48575,0.794666,0,0
0.453125,1.87929,0.365167,0.48575,0.794666,0,0
0.454375,1.87929,0.365167,0.48575,0.794666,0,0
0.455625,1.87929,0.365167,0.48575,0.794666,0,0
0.456875,1.87929,0.365167,0.48575,0.794666,0,0
0.458125,1.87929,0.365167,0.48575,0.794666,0,0
0.459375,1.87929,0.365167,0.48575,0.794666,0,0
0.460625,1.85425,0.348118,0.469325,0.829523,0,0
0.461875,1.85425,0.348118,0.469325,0.829523,0,0
0.463125,1.85425,0.348118,0.469325,0.829523,0,0
0.464375,1.85425,0.348118,0.469325,0.829523,0,0
0.465625,1.85425,0.348118,0.469325,0.829523,0,0
0.466875,1.85425,0.348118,0.469325,0.829523,0,0
0.468125,1.85425,0.348118,0.469325,0.829523,0,0
0.469375,1.85425,0.348118,0.469325,0.829523,0,0
0.470625,1.8301,0.332183,0.453751,0.863369,0,0
0.471875,1.8301,0.332183,0.453751,0.863369,0,0
0.473125,1.8301,0.332183,0.453751,0.863369,0,0
0.474375,1.8301,0.332183,0.453751,0.863369,0,0
0.475625,1.8301,0.332183,0.453751,0.863369,0,0
0.476875,1.8301,0.332183,0.453751,0.863369,0,0
0.478125,1.8301,0.332183,0.453751,0.863369,0,0
0.479375,1.8301,0.332183,0.453751,0.863369,0,0
0.480625,1.80803,0.317922,0.439573,0.894701,0,0
0.481875,1.80803,0.317922,0.439573,0.894701,0,0
0.483125,1.80803,0.317922,0.439573,0.894701,0,0
0.484375,1.80803,0.317922,0.439573,0.894701,0,0
0.485625,1.80803,0.317922,0.439573,0.894701,0,0
0.486875,1.80803,0.317922,0.439573,0.894701,0,0
0.488125,1.80803,0.317922,0.439573,0.894701,0,0
0.489375,1.80803,0.317922,0.439573,0.894701,0,0
0.490625,1.79028,0.306517,0.428005,0.92041,0,0
0.491875,1.79028,0.306517,0.428005,0.92041,0,0
0.493125,1.79028,0.306517,0.428005,0.92041,0,0
0.494375,1.79028,0.306517,0.428005,0.92041,0,0
0.495625,1.79028,0.306517,0.428005,0.92041,0,0
0.496875,1.79028,0.306517,0.428005,0.92041,0,0
0.498125,1.79028,0.306517,0.428005,0.92041,0,0
0.499375,1.79028,0.306517,0.428005,0.92041,0,0
0.500625,1.7804,0.299634,0.420716,0.936055,0,0
0.501875,1.7804,0.299634,0.420716,0.936055,0,0
0.503125,1.7804,0.299634,0.420716,0.936055,0,0
0.504375,1.7804,0.299634,0.420716,0.936055,0,0
0.505625,1.7804,0.299634,0.420716,0.936055,0,0
0.506875,1.7804,0.299634,0.420716,0.936055,0,0
0.508125,1.7804,0.299634,0.420716,0.936055,0,0
0.509375,1.7804,0.299634,0.420716,0.936055,0,0
0.510625,1.77949,0.298479,0.41931,0.938481,0,0
0.511875,1.77949,0.298479,0.41931,0.938481,0,0
0.513125,1.77949,0.298479,0.41931,0.938481,0,0
0.514375,1.77949,0.298479,0.41931,0.938481,0,0
0.515625,1.77949,0.298479,0.41931,0.938481,0,0
0.516875,1.77949,0.298479,0.41931,0.938481,0,0
0.518125,1.77949,0.298479,0.41931,0.938481,0,0
0.519375,1.77949,0.298479,0.41931,0.938481,0,0
0.520625,1.7827,0.300175,0.420932,0.934412,0,0
0.521875,1.7827,0.300175,0.420932,0.934412,0,0
0.523125,1.7827,0.300175,0.420932,0.934412,0,0
0.524375,1.7827,0.300175,0.420932,0.934412,0,0
0.525625,1.7827,0.300175,0.420932,0.934412,0,0
0.526875,1.7827,0.300175,0.420932,0.934412,0,0
0.528125,1.7827,0.300175,0.420932,0.934412,0,0
0.529375,1.7827,0.300175,0.420932,0.934412,0,0
0.530625,1.78562,0.301767,0.422473,0.930719,0,0
0.531875,1.78562,0.301767,0.422473,0.930719,0,0
0.533125,1.78562,0.301767,0.422473,0.930719,0,0
0.534375,1.78562,0.301767,0.422473,0.930719,0,0
0.535625,1.78562,0.301767,0.422473,0.930719,0,0
0.536875,1.78562,0.301767,0.422473,0.930719,0,0
0.538125,1.78562,0.301767,0.422473,0.930719,0,0
0.539375,1.78562,0.301767,0.422473,0.930719,0,0
0.540625,1.78724,0.302499,0.423113,0.929051,0,0
0.541875,1.78724,0.302499,0.423113,0.929051,0,0
0.543125,1.78724,0.302499,0.423113,0.929051,0,0
0.544375,1.78724,0.302499,0.423113,0.929051,0,0
0.545625,1.78724,0.302499,0.423113,0.929051,0,0
0.546875,1.78724,0.302499,0.423113,0.929051,0,0
0.548125,1.78724,0.302499,0.423113,0.929051,0,0
0.549375,1.78724,0.302499,0.423113,0.929051,0,0
0.550625,1.78817,0.302732,0.42322,0.928532,0,0
0.551875,1.78817,0.302732,0.42322,0.928532,0,0
0.553125,1.78817,0.302732,0.42322,0.928532,0,0
0.554375,1.78817,0.302732,0.42322,0.928532,0,0
0.555625,1.78817,0.302732,0.42322,0.928532,0,0
0.556875,1.78817,0.302732,0.42322,0.928532,0,0
0.558125,1.78817,0.302732,0.42322,0.928532,0,0
0.559375,1.78817,0.302732,0.42322,0.928532,0,0
0.560625,1.7889,0.302793,0.423132,0.9284,0,0
0.561875,1.7889,0.302793,0.423132,0.9284,0,0
0.563125,1.7889,0.302793,0.423132,0.9284,0,0
0.564375,1.7889,0.302793,0.423132,0.9284,0,0
0.565625,1.7889,0.302793,0.423132,0.9284,0,0
0.566875,1.7889,0.302793,0.423132,0.9284,0,0
0.568125,1.7889,0.302793,0.423132,0.9284,0,0
0.569375,1.7889,0.302793,0.423132,0.9284,0,0
0.570625,1.78967,0.302814,0.422978,0.92836,0,0
0.571875,1.78967,0.302814,0.422978,0.92836,0,0
0.573125,1.78967,0.302814,0.422978,0.92836,0,0
0.574375,1.78967,0.302814,0.422978,0.92836,0,0
0.575625,1.78967,0.302814,0.422978,0.92836,0,0
0.576875,1.78967,0.302814,0.422978,0.92836,0,0
0.578125,1.78967,0.302814,0.422978,0.92836,0,0
0.579375,1.78967,0.302814,0.422978,0.92836,0,0
0.580625,1.79056,0.30283,0.422789,0.928332,0,0
0.581875,1.79056,0.30283,0.422789,0.928332,0,0
0.583125,1.79056,0.30283,0.422789,0.928332,0,0
0.584375,1.79056,0.30283,0.422789,0.928332,0,0
0.585625,1.79056,0.30283,0.422789,0.928332,0,0
0.586875,1.79056,0.30283,0.422789,0.928332,0,0
0.588125,1.79056,0.30283,0.422789,0.928332,0,0
0.589375,1.79056,0.30283,0.422789,0.928332,0,0
0.590625,1.79159,0.302846,0.42257,0.928303,0,0
0.591875,1.79159,0.302846,0.42257,0.928303,0,0
0.593125,1.79159,0.302846,0.42257,0.928303,0,0
0.594375,1.79159,0.302846,0.42257,0.928303,0,0
0.595625,1.79159,0.302846,0.42257,0.928303,0,0
0.596875,1.79159,0.302846,0.42257,0.928303,0,0
0.598125,1.79159,0.302846,0.42257,0.928303,0,0
0.599375,1.79159,0.302846,0.42257,0.928303,0,0
0.600625,1.79275,0.302865,0.422324,0.928273,0,0
0.601875,1.79275,0.302865,0.422324,0.928273,0,0
0.603125,1.79275,0.302865,0.422324,0.928273,0,0
0.604375,1.79275,0.302865,0.422324,0.928273,0,0
0.605625,1.79275,0.302865,0.422324,0.928273,0,0
0.606875,1.79275,0.302865,0.422324,0.928273,0,0
0.608125,1.79275,0.302865,0.422324,0.928273,0,0
0.609375,1.79275,0.302865,0.422324,0.928273,0,0
0.610625,1.79405,0.302888,0.422048,0.928253,0,0
0.611875,1.79405,0.302888,0.422048,0.928253,0,0
0.613125,1.79405,0.302888,0.422048,0.928253,0,0
0.614375,1.79405,0.302888,0.422048,0.928253,0,0
0.615625,1.79405,0.302888,0.422048,0.928253,0,0
0.616875,1.79405,0.302888,0.422048,0.928253,0,0
0.618125,1.79405,0.302888,0.422048,0.928253,0,0
0.619375,1.79405,0.302888,0.422048,0.928253,0,0
0.620625,1.79568,0.302915,0.421704,0.928264,0,0
0.621875,1.79568,0.302915,0.421704,0.928264,0,0
0.623125,1.79568,0.302915,0.421704,0.928264,0,0
0.624375,1.79568,0.302915,0.421704,0.928264,0,0
0.625625,1.79568,0.302915,0.421704,0.928264,0,0
0.626875,1.79568,0.302915,0.421704,0.928264,0,0
0.628125,1.79568,0.302915,0.421704,0.928264,0,0
0.629375,1.79568,0.302915,0.421704,0.928264,0,0
0.630625,1.79817,0.302948,0.421166,0.928341,0,0
0.631875,1.79817,0.302948,0.421166,0.928341,0,0
0.633125,1.79817,0.302948,0.421166,0.928341,0,0
0.634375,1.79817,0.302948,0.421166,0.928341,0,0
0.635625,1.79817,0.302948,0.421166,0.928341,0,0
0.636875,1.79817,0.302948,0.421166,0.928341,0,0
0.638125,1.79817,0.302948,0.421166,0.928341,0,0
0.639375,1.79817,0.302948,0.421166,0.928341,0,0
0.640625,1.80266,0.302985,0.420169,0.928525,0,0
0.641875,1.80266,0.302985,0.420169,0.928525,0,0
0.643125,1.80266,0.302985,0.420169,0.928525,0,0
0.644375,1.80266,0.302985,0.420169,0.928525,0,0
0.645625,1.80266,0.302985,0.420169,0.928525,0,0
0.646875,1.80266,0.302985,0.420169,0.928525,0,0
0.648125,1.80266,0.302985,0.420169,0.928525,0,0
0.649375,1.80266,0.302985,0.420169,0.928525,0,0
0.650625,1.81108,0.303024,0.418269,0.928857,0,0
0.651875,1.81108,0.303024,0.418269,0.928857,0,0
0.653125,1.81108,0.303024,0.418269,0.928857,0,0
0.654375,1.81108,0.303024,0.418269,0.928857,0,0
0.655625,1.81108,0.303024,0.418269,0.928857,0,0
0.656875,1.81108,0.303024,0.418269,0.928857,0,0
0.658125,1.81108,0.303024,0.418269,0.928857,0,0
0.659375,1.81108,0.303024,0.418269,0.928857,0,0
0.660625,1.82615,0.303059,0.414865,0.929357,0,0
0.661875,1.82615,0.303059,0.414865,0.929357,0,0
0.663125,1.82615,0.303059,0.414865,0.929357,0,0
0.664375,1.82615,0.303059,0.414865,0.929357,0,0
0.665625,1.82615,0.303059,0.414865,0.929357,0,0
0.666875,1.82615,0.303059,0.414865,0.929357,0,0
0.668125,1.82615,0.303059,0.414865,0.929357,0,0
0.669375,1.82615,0.303059,0.414865,0.929357,0,0
0.670625,1.85117,0.303086,0.409294,0.930014,0,0
0.671875,1.85117,0.303086,0.409294,0.930014,0,0
0.673125,1.85117,0.303086,0.409294,0.930014,0,0
0.674375,1.85117,0.303086,0.409294,0.930014,0,0
0.675625,1.85117,0.303086,0.409294,0.930014,0,0
0.676875,1.85117,0.303086,0.409294,0.930014,0,0
0.678125,1.85117,0.303086,0.409294,0.930014,0,0
0.679375,1.85117,0.303086,0.409294,0.930014,0,0
0.680625,1.88956,0.3031,0.400996,0.930778,0,0
0.681875,1.88956,0.3031,0.400996,0.930778,0,0
0.683125,1.88956,0.3031,0.400996,0.930778,0,0
0.684375,1.88956,0.3031,0.400996,0.930778,0,0
0.685625,1.88956,0.3031,0.400996,0.930778,0,0
0.686875,1.88956,0.3031,0.400996,0.930778,0,0
0.688125,1.88956,0.3031,0.400996,0.930778,0,0
0.689375,1.88956,0.3031,0.400996,0.930778,0,0
0.690625,1.94429,0.3031,0.38971,0.93157,0,0
0.691875,1.94429,0.3031,0.38971,0.93157,0,0
0.693125,1.94429,0.3031,0.38971,0.93157,0,0
0.694375,1.94429,0.3031,0.38971,0.93157,0,0
0.695625,1.94429,0.3031,0.38971,0.93157,0,0
0.696875,1.94429,0.3031,0.38971,0.93157,0,0
0.698125,1.94429,0.3031,0.38971,0.93157,0,0
0.699375,1.94429,0.3031,0.38971,0.93157,0,0
0.700625,2.01703,0.303086,0.375638,0.932293,0,0
0.701875,2.01703,0.303086,0.375638,0.932293,0,0
0.703125,2.01703,0.303086,0.375638,0.932293,0,0
0.704375,2.01703,0.303086,0.375638,0.932293,0,0
0.705625,2.01703,0.303086,0.375638,0.932293,0,0
0.706875,2.01703,0.303086,0.375638,0.932293,0,0
0.708125,2.01703,0.303086,0.375638,0.932293,0,0
0.709375,2.01703,0.303086,0.375638,0.932293,0,0
0.710625,2.10741,0.303059,0.359496,0.932843,0,0
0.711875,2.10741,0.303059,0.359496,0.932843,0,0
0.713125,2.10741,0.303059,0.359496,0.932843,0,0
0.714375,2.10741,0.303059,0.359496,0.932843,0,0
0.715625,2.10741,0.303059,0.359496,0.932843,0,0
0.716875,2.10741,0.303059,0.359496,0.932843,0,0
0.718125,2.10741,0.303059,0.359496,0.932843,0,0
0.719375,2.10741,0.303059,0.359496,0.932843,0,0
0.720625,2.21229,0.303023,0.342413,0.933127,0,0
0.721875,2.21229,0.303023,0.342413,0.933127,0,0
0.723125,2.21229,0.303023,0.342413,0.933127,0,0
0.724375,2.21229,0.303023,0.342413,0.933127,0,0
0.725625,2.21229,0.303023,0.342413,0.933127,0,0
0.726875,2.21229,0.303023,0.342413,0.933127,0,0
0.728125,2.21229,0.303023,0.342413,0.933127,0,0
0.729375,2.21229,0.303023,0.342413,0.933127,0,0
0.730625,2.32569,0.302984,0.325674,0.933083,0,0
0.731875,2.32569,0.302984,0.325674,0.933083,0,0
0.733125,2.32569,0.302984,0.325674,0.933083,0,0
0.734375,2.32569,0.302984,0.325674,0.933083,0,0
0.735625,2.32569,0.302984,0.325674,0.933083,0,0
0.736875,2.32569,0.302984,0.325674,0.933083,0,0
0.738125,2.32569,0.302984,0.325674,0.933083,0,0
0.739375,2.32569,0.302984,0.325674,0.933083,0,0
0.740625,2.43964,0.302949,0.310427,0.932697,0,0
0.741875,2.43964,0.302949,0.310427,0.932697,0,0
0.743125,2.43964,0.302949,0.310427,0.932697,0,0
0.744375,2.43964,0.302949,0.310427,0.932697,0,0
0.745625,2.43964,0.302949,0.310427,0.932697,0,0
0.746875,2.43964,0.302949,0.310427,0.932697,0,0
0.748125,2.43964,0.302949,0.310427,0.932697,0,0
0.749375,2.43964,0.302949,0.310427,0.932697,0,0
0.750625,2.54578,0.302922,0.297458,0.932021,0,0
0.751875,2.54578,0.302922,0.297458,0.932021,0,0
0.753125,2.54578,0.302922,0.297458,0.932021,0,0
0.754375,2.54578,0.302922,0.297458,0.932021,0,0
0.755625,2.54578,0.302922,0.297458,0.932021,0,0
0.756875,2.54578,0.302922,0.297458,0.932021,0,0
0.758125,2.54578,0.302922,0.297458,0.932021,0,0
0.759375,2.54578,0.302922,0.297458,0.932021,0,0
0.760625,2.63741,0.302908,0.287111,0.931161,0,0
0.761875,2.63741,0.302908,0.287111,0.931161,0,0
0.763125,2.63741,0.302908,0.287111,0.931161,0,0
0.764375,2.63741,0.302908,0.287111,0.931161,0,0
0.765625,2.63741,0.302908,0.287111,0.931161,0,0
0.766875,2.63741,0.302908,0.287111,0.931161,0,0
0.768125,2.63741,0.302908,0.287111,0.931161,0,0
0.769375,2.63741,0.302908,0.287111,0.931161,0,0
0.770625,2.71076,0.302904,0.279337,0.930244,0,0
0.771875,2.71076,0.302904,0.279337,0.930244,0,0
0.773125,2.71076,0.302904,0.279337,0.930244,0,0
0.774375,2.71076,0.302904,0.279337,0.930244,0,0
0.775625,2.71076,0.302904,0.279337,0.930244,0,0
0.776875,2.71076,0.302904,0.279337,0.930244,0,0
0.778125,2.71076,0.302904,0.279337,0.930244,0,0