x,T,p,rho,U_0,U_1,U_2
0.000625,2.5,1,0.999943,4.76043e-10,0,0
0.001875,2.5,1,0.999943,4.76043e-10,0,0
0.003125,2.5,1,0.999943,4.76043e-10,0,0
0.004375,2.5,1,0.999943,4.76043e-10,0,0
0.005625,2.5,1,0.999943,1.68525e-09,0,0
0.006875,2.5,1,0.999943,1.68525e-09,0,0
0.008125,2.5,1,0.999943,1.68525e-09,0,0
0.009375,2.5,1,0.999943,1.68525e-09,0,0
0.010625,2.5,1,0.999943,3.8117e-09,0,0
0.011875,2.5,1,0.999943,3.8117e-09,0,0
0.013125,2.5,1,0.999943,3.8117e-09,0,0
0.014375,2.5,1,0.999943,3.8117e-09,0,0
0.015625,2.5,1,0.999943,7.94657e-09,0,0
0.016875,2.5,1,0.999943,7.94657e-09,0,0
0.018125,2.5,1,0.999943,7.94657e-09,0,0
0.019375,2.5,1,0.999943,7.94657e-09,0,0
0.020625,2.5,1,0.999943,1.61138e-08,0,0
0.021875,2.5,1,0.999943,1.61138e-08,0,0
0.023125,2.5,1,0.999943,1.61138e-08,0,0
0.024375,2.5,1,0.999943,1.61138e-08,0,0
0.025625,2.5,1,0.999943,3.21275e-08,0,0
0.026875,2.5,1,0.999943,3.21275e-08,0,0
0.028125,2.5,1,0.999943,3.21275e-08,0,0
0.029375,2.5,1,0.999943,3.21275e-08,0,0
0.030625,2.5,1,0.999943,6.31231e-08,0,0
0.031875,2.5,1,0.999943,6.31231e-08,0,0
0.033125,2.5,1,0.999943,6.31231e-08,0,0
0.034375,2.5,1,0.999943,6.31231e-08,0,0
0.035625,2.5,1,0.999943,1.22262e-07,0,0
0.036875,2.5,1,0.999943,1.22262e-07,0,0
0.038125,2.5,1,0.999943,1.22262e-07,0,0
0.039375,2.5,1,0.999943,1.22262e-07,0,0
0.040625,2.5,1,0.999943,2.33439e-07,0,0
0.041875,2.5,1,0.999943,2.33439e-07,0,0
0.043125,2.5,1,0.999943,2.33439e-07,0,0
0.044375,2.5,1,0.999943,2.33439e-07,0,0
0.045625,2.5,0.999999,0.999943,4.39313e-07,0,0
0.046875,2.5,0.999999,0.999943,4.39313e-07,0,0
0.048125,2.5,0.999999,0.999943,4.39313e-07,0,0
0.049375,2.5,0.999999,0.999943,4.39313e-07,0,0
0.050625,2.5,0.999999,0.999943,8.1475e-07,0,0
0.051875,2.5,0.999999,0.999943,8.1475e-07,0,0
0.053125,2.5,0.999999,0.999943,8.1475e-07,0,0
0.054375,2.5,0.999999,0.999943,8.1475e-07,0,0
0.055625,2.5,0.999998,0.999942,1.48886e-06,0,0
0.056875,2.5,0.999998,0.999942,1.48886e-06,0,0
0.058125,2.5,0.999998,0.999942,1.48886e-06,0,0
0.059375,2.5,0.999998,0.999942,1.48886e-06,0,0
0.060625,2.5,0.999997,0.999941,2.68031e-06,0,0
0.061875,2.5,0.999997,0.999941,2.68031e-06,0,0
0.063125,2.5,0.999997,0.999941,2.68031e-06,0,0
0.064375,2.5,0.999997,0.999941,2.68031e-06,0,0
0.065625,2.5,0.999995,0.99994,4.75273e-06,0,0
0.066875,2.5,0.999995,0.99994,4.75273e-06,0,0
0.068125,2.5,0.999995,0.99994,4.75273e-06,0,0
0.069375,2.5,0.999995,0.99994,4.75273e-06,0,0
0.070625,2.49999,0.99999,0.999937,8.29945e-06,0,0
0.071875,2.49999,0.99999,0.999937,8.29945e-06,0,0
0.073125,2.49999,0.99999,0.999937,8.29945e-06,0,0
0.074375,2.49999,0.99999,0.999937,8.29945e-06,0,0
0.075625,2.49999,0.999984,0.999932,1.42699e-05,0,0
0.076875,2.49999,0.999984,0.999932,1.42699e-05,0,0
0.078125,2.49999,0.999984,0.999932,1.42699e-05,0,0
0.079375,2.49999,0.999984,0.999932,1.42699e-05,0,0
0.080625,2.49998,0.999972,0.999924,2.41533e-05,0,0
0.081875,2.49998,0.999972,0.999924,2.41533e-05,0,0
0.083125,2.49998,0.999972,0.999924,2.41533e-05,0,0
0.084375,2.49998,0.999972,0.999924,2.41533e-05,0,0
0.085625,2.49997,0.999954,0.999911,4.02376e-05,0,0
0.086875,2.49997,0.999954,0.999911,4.02376e-05,0,0
0.088125,2.49997,0.999954,0.999911,4.02376e-05,0,0
0.089375,2.49997,0.999954,0.999911,4.02376e-05,0,0
0.090625,2.49994,0.999924,0.99989,6.59632e-05,0,0
0.091875,2.49994,0.999924,0.99989,6.59632e-05,0,0
0.093125,2.49994,0.999924,0.99989,6.59632e-05,0,0
0.094375,2.49994,0.999924,0.99989,6.59632e-05,0,0
0.095625,2.49991,0.999877,0.999857,0.00010639,0,0
0.096875,2.49991,0.999877,0.999857,0.00010639,0,0
0.098125,2.49991,0.999877,0.999857,0.00010639,0,0
0.099375,2.49991,0.999877,0.999857,0.00010639,0,0
0.100625,2.49985,0.999805,0.999807,0.000168788,0,0
0.101875,2.49985,0.999805,0.999807,0.000168788,0,0
0.103125,2.49985,0.999805,0.999807,0.000168788,0,0
0.104375,2.49985,0.999805,0.999807,0.000168788,0,0
0.105625,2.49977,0.999695,0.99973,0.00026336,0,0
0.106875,2.49977,0.999695,0.99973,0.00026336,0,0
0.108125,2.49977,0.999695,0.99973,0.00026336,0,0
0.109375,2.49977,0.999695,0.99973,0.00026336,0,0
0.110625,2.49965,0.999532,0.999615,0.00040406,0,0
0.111875,2.49965,0.999532,0.999615,0.00040406,0,0
0.113125,2.49965,0.999532,0.999615,0.00040406,0,0
0.114375,2.49965,0.999532,0.999615,0.00040406,0,0
0.115625,2.49947,0.999294,0.999447,0.000609483,0,0
0.116875,2.49947,0.999294,0.999447,0.000609483,0,0
0.118125,2.49947,0.999294,0.999447,0.000609483,0,0
0.119375,2.49947,0.999294,0.999447,0.000609483,0,0
0.120625,2.49922,0.998952,0.999207,0.000903737,0,0
0.121875,2.49922,0.998952,0.999207,0.000903737,0,0
0.123125,2.49922,0.998952,0.999207,0.000903737,0,0
0.124375,2.49922,0.998952,0.999207,0.000903737,0,0
0.125625,2.49887,0.998472,0.998868,0.00131718,0,0
0.126875,2.49887,0.998472,0.998868,0.00131718,0,0
0.128125,2.49887,0.998472,0.998868,0.00131718,0,0
0.129375,2.49887,0.998472,0.998868,0.00131718,0,0
0.130625,2.49838,0.997809,0.998401,0.00188691,0,0
0.131875,2.49838,0.997809,0.998401,0.00188691,0,0
0.133125,2.49838,0.997809,0.998401,0.00188691,0,0
0.134375,2.49838,0.997809,0.998401,0.00188691,0,0
0.135625,2.49772,0.996914,0.997768,0.00265684,0,0
0.136875,2.49772,0.996914,0.997768,0.00265684,0,0
0.138125,2.49772,0.996914,0.997768,0.00265684,0,0
0.139375,2.49772,0.996914,0.997768,0.00265684,0,0
0.140625,2.49684,0.995727,0.996929,0.00367719,0,0
0.141875,2.49684,0.995727,0.996929,0.00367719,0,0
0.143125,2.49684,0.995727,0.996929,0.00367719,0,0
0.144375,2.49684,0.995727,0.996929,0.00367719,0,0
0.145625,2.49571,0.994184,0.995837,0.0050035,0,0
0.146875,2.49571,0.994184,0.995837,0.0050035,0,0
0.148125,2.49571,0.994184,0.995837,0.0050035,0,0
0.149375,2.49571,0.994184,0.995837,0.0050035,0,0
0.150625,2.49426,0.992218,0.994443,0.00669483,0,0
0.151875,2.49426,0.992218,0.994443,0.00669483,0,0
0.153125,2.49426,0.992218,0.994443,0.00669483,0,0
0.154375,2.49426,0.992218,0.994443,0.00669483,0,0
0.155625,2.49246,0.989759,0.992698,0.00881156,0,0
0.156875,2.49246,0.989759,0.992698,0.00881156,0,0
0.158125,2.49246,0.989759,0.992698,0.00881156,0,0
0.159375,2.49246,0.989759,0.992698,0.00881156,0,0
0.160625,2.49024,0.986743,0.990553,0.0114128,0,0
0.161875,2.49024,0.986743,0.990553,0.0114128,0,0
0.163125,2.49024,0.986743,0.990553,0.0114128,0,0
0.164375,2.49024,0.986743,0.990553,0.0114128,0,0
0.165625,2.48757,0.983107,0.987963,0.0145538,0,0
0.166875,2.48757,0.983107,0.987963,0.0145538,0,0
0.168125,2.48757,0.983107,0.987963,0.0145538,0,0
0.169375,2.48757,0.983107,0.987963,0.0145538,0,0
0.170625,2.48441,0.978802,0.98489,0.0182832,0,0
0.171875,2.48441,0.978802,0.98489,0.0182832,0,0
0.173125,2.48441,0.978802,0.98489,0.0182832,0,0
0.174375,2.48441,0.978802,0.98489,0.0182832,0,0
0.175625,2.48071,0.973787,0.981303,0.0226411,0,0
0.176875,2.48071,0.973787,0.981303,0.0226411,0,0
0.178125,2.48071,0.973787,0.981303,0.0226411,0,0
0.179375,2.48071,0.973787,0.981303,0.0226411,0,0
0.180625,2.47647,0.968038,0.97718,0.0276576,0,0
0.181875,2.47647,0.968038,0.97718,0.0276576,0,0
0.183125,2.47647,0.968038,0.97718,0.0276576,0,0
0.184375,2.47647,0.968038,0.97718,0.0276576,0,0
0.185625,2.47166,0.961543,0.972511,0.0333519,0,0
0.186875,2.47166,0.961543,0.972511,0.0333519,0,0
0.188125,2.47166,0.961543,0.972511,0.0333519,0,0
0.189375,2.47166,0.961543,0.972511,0.0333519,0,0
0.190625,2.46629,0.954304,0.967293,0.0397325,0,0
0.191875,2.46629,0.954304,0.967293,0.0397325,0,0
0.193125,2.46629,0.954304,0.967293,0.0397325,0,0
0.194375,2.46629,0.954304,0.967293,0.0397325,0,0
0.195625,2.46035,0.946338,0.961535,0.0467977,0,0
0.196875,2.46035,0.946338,0.961535,0.0467977,0,0
0.198125,2.46035,0.946338,0.961535,0.0467977,0,0
0.199375,2.46035,0.946338,0.961535,0.0467977,0,0
0.200625,2.45386,0.937674,0.955252,0.0545363,0,0
0.201875,2.45386,0.937674,0.955252,0.0545363,0,0
0.203125,2.45386,0.937674,0.955252,0.0545363,0,0
0.204375,2.45386,0.937674,0.955252,0.0545363,0,0
0.205625,2.44683,0.928349,0.948468,0.0629299,0,0
0.206875,2.44683,0.928349,0.948468,0.0629299,0,0
0.208125,2.44683,0.928349,0.948468,0.0629299,0,0
0.209375,2.44683,0.928349,0.948468,0.0629299,0,0
0.210625,2.4393,0.918408,0.941211,0.0719533,0,0
0.211875,2.4393,0.918408,0.941211,0.0719533,0,0
0.213125,2.4393,0.918408,0.941211,0.0719533,0,0
0.214375,2.4393,0.918408,0.941211,0.0719533,0,0
0.215625,2.43128,0.907902,0.933513,0.0815773,0,0
0.216875,2.43128,0.907902,0.933513,0.0815773,0,0
0.218125,2.43128,0.907902,0.933513,0.0815773,0,0
0.219375,2.43128,0.907902,0.933513,0.0815773,0,0
0.220625,2.4228,0.896885,0.92541,0.0917691,0,0
0.221875,2.4228,0.896885,0.92541,0.0917691,0,0
0.223125,2.4228,0.896885,0.92541,0.0917691,0,0
0.224375,2.4228,0.896885,0.92541,0.0917691,0,0
0.225625,2.41391,0.885412,0.916938,0.102494,0,0
0.226875,2.41391,0.885412,0.916938,0.102494,0,0
0.228125,2.41391,0.885412,0.916938,0.102494,0,0
0.229375,2.41391,0.885412,0.916938,0.102494,0,0
0.230625,2.40462,0.873537,0.908134,0.113718,0,0
0.231875,2.40462,0.873537,0.908134,0.113718,0,0
0.233125,2.40462,0.873537,0.908134,0.113718,0,0
0.234375,2.40462,0.873537,0.908134,0.113718,0,0
0.235625,2.39498,0.861315,0.899034,0.125404,0,0
0.236875,2.39498,0.861315,0.899034,0.125404,0,0
0.238125,2.39498,0.861315,0.899034,0.125404,0,0
0.239375,2.39498,0.861315,0.899034,0.125404,0,0
0.240625,2.385,0.848796,0.889672,0.137521,0,0
0.241875,2.385,0.848796,0.889672,0.137521,0,0
0.243125,2.385,0.848796,0.889672,0.137521,0,0
0.244375,2.385,0.848796,0.889672,0.137521,0,0
0.245625,2.37472,0.836028,0.880082,0.150033,0,0
0.246875,2.37472,0.836028,0.880082,0.150033,0,0
0.248125,2.37472,0.836028,0.880082,0.150033,0,0
0.249375,2.37472,0.836028,0.880082,0.150033,0,0
0.250625,2.36417,0.823058,0.870295,0.162911,0,0
0.251875,2.36417,0.823058,0.870295,0.162911,0,0
0.253125,2.36417,0.823058,0.870295,0.162911,0,0
0.254375,2.36417,0.823058,0.870295,0.162911,0,0
0.255625,2.35338,0.809927,0.860339,0.176126,0,0
0.256875,2.35338,0.809927,0.860339,0.176126,0,0
0.258125,2.35338,0.809927,0.860339,0.176126,0,0
0.259375,2.35338,0.809927,0.860339,0.176126,0,0
0.260625,2.34235,0.796673,0.850243,0.189651,0,0
0.261875,2.34235,0.796673,0.850243,0.189651,0,0
0.263125,2.34235,0.796673,0.850243,0.189651,0,0
0.264375,2.34235,0.796673,0.850243,0.189651,0,0
0.265625,2.33113,0.78333,0.840029,0.20346,0,0
0.266875,2.33113,0.78333,0.840029,0.20346,0,0
0.268125,2.33113,0.78333,0.840029,0.20346,0,0
0.269375,2.33113,0.78333,0.840029,0.20346,0,0
0.270625,2.31972,0.769932,0.829721,0.217531,0,0
0.271875,2.31972,0.769932,0.829721,0.217531,0,0
0.273125,2.31972,0.769932,0.829721,0.217531,0,0
0.274375,2.31972,0.769932,0.829721,0.217531,0,0
0.275625,2.30815,0.756505,0.819338,0.231842,0,0
0.276875,2.30815,0.756505,0.819338,0.231842,0,0
0.278125,2.30815,0.756505,0.819338,0.231842,0,0
0.279375,2.30815,0.756505,0.819338,0.231842,0,0
0.280625,2.29643,0.743075,0.8089,0.246376,0,0
0.281875,2.29643,0.743075,0.8089,0.246376,0,0
0.283125,2.29643,0.743075,0.8089,0.246376,0,0
0.284375,2.29643,0.743075,0.8089,0.246376,0,0
0.285625,2.28458,0.729665,0.798423,0.261113,0,0
0.286875,2.28458,0.729665,0.798423,0.261113,0,0
0.288125,2.28458,0.729665,0.798423,0.261113,0,0
0.289375,2.28458,0.729665,0.798423,0.261113,0,0
0.290625,2.27261,0.716295,0.787922,0.276039,0,0
0.291875,2.27261,0.716295,0.787922,0.276039,0,0
0.293125,2.27261,0.716295,0.787922,0.276039,0,0
0.294375,2.27261,0.716295,0.787922,0.276039,0,0
0.295625,2.26053,0.702983,0.77741,0.291138,0,0
0.296875,2.26053,0.702983,0.77741,0.291138,0,0
0.298125,2.26053,0.702983,0.77741,0.291138,0,0
0.299375,2.26053,0.702983,0.77741,0.291138,0,0
0.300625,2.24836,0.689745,0.766899,0.306399,0,0
0.301875,2.24836,0.689745,0.766899,0.306399,0,0
0.303125,2.24836,0.689745,0.766899,0.306399,0,0
0.304375,2.24836,0.689745,0.766899,0.306399,0,0
0.305625,2.2361,0.676594,0.756401,0.321808,0,0
0.306875,2.2361,0.676594,0.756401,0.321808,0,0
0.308125,2.2361,0.676594,0.756401,0.321808,0,0
0.309375,2.2361,0.676594,0.756401,0.321808,0,0
0.310625,2.22377,0.663544,0.745925,0.337356,0,0
0.311875,2.22377,0.663544,0.745925,0.337356,0,0
0.313125,2.22377,0.663544,0.745925,0.337356,0,0
0.314375,2.22377,0.663544,0.745925,0.337356,0,0
0.315625,2.21137,0.650605,0.735479,0.353033,0,0
0.316875,2.21137,0.650605,0.735479,0.353033,0,0
0.318125,2.21137,0.650605,0.735479,0.353033,0,0
0.319375,2.21137,0.650605,0.735479,0.353033,0,0
0.320625,2.19892,0.637786,0.725072,0.36883,0,0
0.321875,2.19892,0.637786,0.725072,0.36883,0,0
0.323125,2.19892,0.637786,0.725072,0.36883,0,0
0.324375,2.19892,0.637786,0.725072,0.36883,0,0
0.325625,2.18641,0.625095,0.71471,0.384738,0,0
0.326875,2.18641,0.625095,0.71471,0.384738,0,0
0.328125,2.18641,0.625095,0.71471,0.384738,0,0
0.329375,2.18641,0.625095,0.71471,0.384738,0,0
0.330625,2.17386,0.612541,0.7044,0.400752,0,0
0.331875,2.17386,0.612541,0.7044,0.400752,0,0
0.333125,2.17386,0.612541,0.7044,0.400752,0,0
0.334375,2.17386,0.612541,0.7044,0.400752,0,0
0.335625,2.16126,0.600128,0.694147,0.416863,0,0
0.336875,2.16126,0.600128,0.694147,0.416863,0,0
0.338125,2.16126,0.600128,0.694147,0.416863,0,0
0.339375,2.16126,0.600128,0.694147,0.416863,0,0
0.340625,2.14864,0.587862,0.683956,0.433067,0,0
0.341875,2.14864,0.587862,0.683956,0.433067,0,0
0.343125,2.14864,0.587862,0.683956,0.433067,0,0
0.344375,2.14864,0.587862,0.683956,0.433067,0,0
0.345625,2.13598,0.575748,0.673831,0.449357,0,0
0.346875,2.13598,0.575748,0.673831,0.449357,0,0
0.348125,2.13598,0.575748,0.673831,0.449357,0,0
0.349375,2.13598,0.575748,0.673831,0.449357,0,0
0.350625,2.1233,0.56379,0.663777,0.465729,0,0
0.351875,2.1233,0.56379,0.663777,0.465729,0,0
0.353125,2.1233,0.56379,0.663777,0.465729,0,0
0.354375,2.1233,0.56379,0.663777,0.465729,0,0
0.355625,2.1106,0.551991,0.653796,0.482178,0,0
0.356875,2.1106,0.551991,0.653796,0.482178,0,0
0.358125,2.1106,0.551991,0.653796,0.482178,0,0
0.359375,2.1106,0.551991,0.653796,0.482178,0,0
0.360625,2.09788,0.540353,0.643893,0.4987,0,0
0.361875,2.09788,0.540353,0.643893,0.4987,0,0
0.363125,2.09788,0.540353,0.643893,0.4987,0,0
0.364375,2.09788,0.540353,0.643893,0.4987,0,0
0.365625,2.08514,0.528879,0.634069,0.515291,0,0
0.366875,2.08514,0.528879,0.634069,0.515291,0,0
0.368125,2.08514,0.528879,0.634069,0.515291,0,0
0.369375,2.08514,0.528879,0.634069,0.515291,0,0
0.370625,2.0724,0.517571,0.624327,0.531948,0,0
0.371875,2.0724,0.517571,0.624327,0.531948,0,0
0.373125,2.0724,0.517571,0.624327,0.531948,0,0
0.374375,2.0724,0.517571,0.624327,0.531948,0,0
0.375625,2.05965,0.50643,0.61467,0.548667,0,0
0.376875,2.05965,0.50643,0.61467,0.548667,0,0
0.378125,2.05965,0.50643,0.61467,0.548667,0,0
0.379375,2.05965,0.50643,0.61467,0.548667,0,0
0.380625,2.04689,0.495457,0.6051,0.565445,0,0
0.381875,2.04689,0.495457,0.6051,0.565445,0,0
0.383125,2.04689,0.495457,0.6051,0.565445,0,0
0.384375,2.04689,0.495457,0.6051,0.565445,0,0
0.385625,2.03413,0.484653,0.595618,0.582279,0,0
0.386875,2.03413,0.484653,0.595618,0.582279,0,0
0.388125,2.03413,0.484653,0.595618,0.582279,0,0
0.389375,2.03413,0.484653,0.595618,0.582279,0,0
0.390625,2.02137,0.474019,0.586225,0.599166,0,0
0.391875,2.02137,0.474019,0.586225,0.599166,0,0
0.393125,2.02137,0.474019,0.586225,0.599166,0,0
0.394375,2.02137,0.474019,0.586225,0.599166,0,0
0.395625,2.00862,0.463554,0.576925,0.616103,0,0
0.396875,2.00862,0.463554,0.576925,0.616103,0,0
0.398125,2.00862,0.463554,0.576925,0.616103,0,0
0.399375,2.00862,0.463554,0.576925,0.616103,0,0
0.400625,1.99587,0.453261,0.567717,0.633088,0,0
0.401875,1.99587,0.453261,0.567717,0.633088,0,0
0.403125,1.99587,0.453261,0.567717,0.633088,0,0
0.404375,1.99587,0.453261,0.567717,0.633088,0,0
0.405625,1.98313,0.443138,0.558604,0.650117,0,0
0.406875,1.98313,0.443138,0.558604,0.650117,0,0
0.408125,1.98313,0.443138,0.558604,0.650117,0,0
0.409375,1.98313,0.443138,0.558604,0.650117,0,0
0.410625,1.9704,0.433186,0.549587,0.667187,0,0
0.411875,1.9704,0.433186,0.549587,0.667187,0,0
0.413125,1.9704,0.433186,0.549587,0.667187,0,0
0.414375,1.9704,0.433186,0.549587,0.667187,0,0
0.415625,1.95768,0.423406,0.540667,0.684293,0,0
0.416875,1.95768,0.423406,0.540667,0.684293,0,0
0.418125,1.95768,0.423406,0.540667,0.684293,0,0
0.419375,1.95768,0.423406,0.540667,0.684293,0,0
0.420625,1.94499,0.413799,0.531849,0.70143,0,0
0.421875,1.94499,0.413799,0.531849,0.70143,0,0
0.423125,1.94499,0.413799,0.531849,0.70143,0,0
0.424375,1.94499,0.413799,0.531849,0.70143,0,0
0.425625,1.93232,0.404367,0.523133,0.718591,0,0
0.426875,1.93232,0.404367,0.523133,0.718591,0,0
0.428125,1.93232,0.404367,0.523133,0.718591,0,0
0.429375,1.93232,0.404367,0.523133,0.718591,0,0
0.430625,1.91968,0.395111,0.514523,0.735767,0,0
0.431875,1.91968,0.395111,0.514523,0.735767,0,0
0.433125,1.91968,0.395111,0.514523,0.735767,0,0
0.434375,1.91968,0.395111,0.514523,0.735767,0,0
0.435625,1.90708,0.386035,0.506026,0.752947,0,0
0.436875,1.90708,0.386035,0.506026,0.752947,0,0
0.438125,1.90708,0.386035,0.506026,0.752947,0,0
0.439375,1.90708,0.386035,0.506026,0.752947,0,0
0.440625,1.89454,0.377146,0.497647,0.770112,0,0
0.441875,1.89454,0.377146,0.497647,0.770112,0,0
0.443125,1.89454,0.377146,0.497647,0.770112,0,0
0.444375,1.89454,0.377146,0.497647,0.770112,0,0
0.445625,1.88207,0.368453,0.489397,0.787236,0,0
0.446875,1.88207,0.368453,0.489397,0.787236,0,0
0.448125,1.88207,0.368453,0.489397,0.787236,0,0
0.449375,1.88207,0.368453,0.489397,0.787236,0,0
0.450625,1.8697,0.359969,0.481292,0.804283,0,0
0.451875,1.8697,0.359969,0.481292,0.804283,0,0
0.453125,1.8697,0.359969,0.481292,0.804283,0,0
0.454375,1.8697,0.359969,0.481292,0.804283,0,0
0.455625,1.85747,0.351717,0.473353,0.821195,0,0
0.456875,1.85747,0.351717,0.473353,0.821195,0,0
0.458125,1.85747,0.351717,0.473353,0.821195,0,0
0.459375,1.85747,0.351717,0.473353,0.821195,0,0
0.460625,1.84545,0.343727,0.465615,0.837889,0,0
0.461875,1.84545,0.343727,0.465615,0.837889,0,0
0.463125,1.84545,0.343727,0.465615,0.837889,0,0
0.464375,1.84545,0.343727,0.465615,0.837889,0,0
0.465625,1.83372,0.33605,0.458128,0.854237,0,0
0.466875,1.83372,0.33605,0.458128,0.854237,0,0
0.468125,1.83372,0.33605,0.458128,0.854237,0,0
0.469375,1.83372,0.33605,0.458128,0.854237,0,0
0.470625,1.82243,0.32876,0.450967,0.870045,0,0
0.471875,1.82243,0.32876,0.450967,0.870045,0,0
0.473125,1.82243,0.32876,0.450967,0.870045,0,0
0.474375,1.82243,0.32876,0.450967,0.870045,0,0
0.475625,1.81177,0.321967,0.444245,0.885025,0,0
0.476875,1.81177,0.321967,0.444245,0.885025,0,0
0.478125,1.81177,0.321967,0.444245,0.885025,0,0
0.479375,1.81177,0.321967,0.444245,0.885025,0,0
0.480625,1.80206,0.315829,0.438125,0.898765,0,0
0.481875,1.80206,0.315829,0.438125,0.898765,0,0
0.483125,1.80206,0.315829,0.438125,0.898765,0,0
0.484375,1.80206,0.315829,0.438125,0.898765,0,0
0.485625,1.79369,0.310555,0.43282,0.910712,0,0
0.486875,1.79369,0.310555,0.43282,0.910712,0,0
0.488125,1.79369,0.310555,0.43282,0.910712,0,0
0.489375,1.79369,0.310555,0.43282,0.910712,0,0
0.490625,1.7871,0.306387,0.428585,0.920232,0,0
0.491875,1.7871,0.306387,0.428585,0.920232,0,0
0.493125,1.7871,0.306387,0.428585,0.920232,0,0
0.494375,1.7871,0.306387,0.428585,0.920232,0,0
0.495625,1.78266,0.303525,0.425638,0.926788,0,0
0.496875,1.78266,0.303525,0.425638,0.926788,0,0
0.498125,1.78266,0.303525,0.425638,0.926788,0,0
0.499375,1.78266,0.303525,0.425638,0.926788,0,0
0.500625,1.78042,0.301999,0.424032,0.930261,0,0
0.501875,1.78042,0.301999,0.424032,0.930261,0,0
0.503125,1.78042,0.301999,0.424032,0.930261,0,0
0.504375,1.78042,0.301999,0.424032,0.930261,0,0
0.505625,1.77992,0.301568,0.423545,0.931206,0,0
0.506875,1.77992,0.301568,0.423545,0.931206,0,0
0.508125,1.77992,0.301568,0.423545,0.931206,0,0
0.509375,1.77992,0.301568,0.423545,0.931206,0,0
0.510625,1.78041,0.301773,0.423718,0.930697,0,0
0.511875,1.78041,0.301773,0.423718,0.930697,0,0
0.513125,1.78041,0.301773,0.423718,0.930697,0,0
0.514375,1.78041,0.301773,0.423718,0.930697,0,0
0.515625,1.78115,0.302163,0.424088,0.929782,0,0
0.516875,1.78115,0.302163,0.424088,0.929782,0,0
0.518125,1.78115,0.302163,0.424088,0.929782,0,0
0.519375,1.78115,0.302163,0.424088,0.929782,0,0
0.520625,1.78177,0.302483,0.424389,0.929041,0,0
0.521875,1.78177,0.302483,0.424389,0.929041,0,0
0.523125,1.78177,0.302483,0.424389,0.929041,0,0
0.524375,1.78177,0.302483,0.424389,0.929041,0,0
0.525625,1.78219,0.302673,0.424557,0.928604,0,0
0.526875,1.78219,0.302673,0.424557,0.928604,0,0
0.528125,1.78219,0.302673,0.424557,0.928604,0,0
0.529375,1.78219,0.302673,0.424557,0.928604,0,0
0.530625,1.78246,0.302769,0.424627,0.928384,0,0
0.531875,1.78246,0.302769,0.424627,0.928384,0,0
0.533125,1.78246,0.302769,0.424627,0.928384,0,0
0.534375,1.78246,0.302769,0.424627,0.928384,0,0
0.535625,1.78266,0.302816,0.424645,0.928276,0,0
0.536875,1.78266,0.302816,0.424645,0.928276,0,0
0.538125,1.78266,0.302816,0.424645,0.928276,0,0
0.539375,1.78266,0.302816,0.424645,0.928276,0,0
0.540625,1.78284,0.302844,0.424641,0.928214,0,0
0.541875,1.78284,0.302844,0.424641,0.928214,0,0
0.543125,1.78284,0.302844,0.424641,0.928214,0,0
0.544375,1.78284,0.302844,0.424641,0.928214,0,0
0.545625,1.78301,0.302864,0.424628,0.928167,0,0
0.546875,1.78301,0.302864,0.424628,0.928167,0,0
0.548125,1.78301,0.302864,0.424628,0.928167,0,0
0.549375,1.78301,0.302864,0.424628,0.928167,0,0
0.550625,1.78319,0.302883,0.424611,0.928125,0,0
0.551875,1.78319,0.302883,0.424611,0.928125,0,0
0.553125,1.78319,0.302883,0.424611,0.928125,0,0
0.554375,1.78319,0.302883,0.424611,0.928125,0,0
0.555625,1.78338,0.3029,0.424591,0.928084,0,0
0.556875,1.78338,0.3029,0.424591,0.928084,0,0
0.558125,1.78338,0.3029,0.424591,0.928084,0,0
0.559375,1.78338,0.3029,0.424591,0.928084,0,0
0.560625,1.78357,0.302917,0.424569,0.928045,0,0
0.561875,1.78357,0.302917,0.424569,0.928045,0,0
0.563125,1.78357,0.302917,0.424569,0.928045,0,0
0.564375,1.78357,0.302917,0.424569,0.928045,0,0
0.565625,1.78378,0.302934,0.424544,0.928008,0,0
0.566875,1.78378,0.302934,0.424544,0.928008,0,0
0.568125,1.78378,0.302934,0.424544,0.928008,0,0
0.569375,1.78378,0.302934,0.424544,0.928008,0,0
0.570625,1.78399,0.302949,0.424515,0.927972,0,0
0.571875,1.78399,0.302949,0.424515,0.927972,0,0
0.573125,1.78399,0.302949,0.424515,0.927972,0,0
0.574375,1.78399,0.302949,0.424515,0.927972,0,0
0.575625,1.78421,0.302964,0.424483,0.927939,0,0
0.576875,1.78421,0.302964,0.424483,0.927939,0,0
0.578125,1.78421,0.302964,0.424483,0.927939,0,0
0.579375,1.78421,0.302964,0.424483,0.927939,0,0
0.580625,1.78444,0.302978,0.424447,0.927908,0,0
0.581875,1.78444,0.302978,0.424447,0.927908,0,0
0.583125,1.78444,0.302978,0.424447,0.927908,0,0
0.584375,1.78444,0.302978,0.424447,0.927908,0,0
0.585625,1.78469,0.302991,0.424406,0.927879,0,0
0.586875,1.78469,0.302991,0.424406,0.927879,0,0
0.588125,1.78469,0.302991,0.424406,0.927879,0,0
0.589375,1.78469,0.302991,0.424406,0.927879,0,0
0.590625,1.78496,0.303003,0.424361,0.927852,0,0
0.591875,1.78496,0.303003,0.424361,0.927852,0,0
0.593125,1.78496,0.303003,0.424361,0.927852,0,0
0.594375,1.78496,0.303003,0.424361,0.927852,0,0
0.595625,1.78524,0.303015,0.42431,0.927827,0,0
0.596875,1.78524,0.303015,0.42431,0.927827,0,0
0.598125,1.78524,0.303015,0.42431,0.927827,0,0
0.599375,1.78524,0.303015,0.42431,0.927827,0,0
0.600625,1.78554,0.303025,0.424254,0.927804,0,0
0.601875,1.78554,0.303025,0.424254,0.927804,0,0
0.603125,1.78554,0.303025,0.424254,0.927804,0,0
0.604375,1.78554,0.303025,0.424254,0.927804,0,0
0.605625,1.78586,0.303035,0.42419,0.927784,0,0
0.606875,1.78586,0.303035,0.42419,0.927784,0,0
0.608125,1.78586,0.303035,0.42419,0.927784,0,0
0.609375,1.78586,0.303035,0.42419,0.927784,0,0
0.610625,1.78621,0.303044,0.42412,0.927765,0,0
0.611875,1.78621,0.303044,0.42412,0.927765,0,0
0.613125,1.78621,0.303044,0.42412,0.927765,0,0
0.614375,1.78621,0.303044,0.42412,0.927765,0,0
0.615625,1.78659,0.303052,0.424041,0.927749,0,0
0.616875,1.78659,0.303052,0.424041,0.927749,0,0
0.618125,1.78659,0.303052,0.424041,0.927749,0,0
0.619375,1.78659,0.303052,0.424041,0.927749,0,0
0.620625,1.78701,0.30306,0.423952,0.927734,0,0
0.621875,1.78701,0.30306,0.423952,0.927734,0,0
0.623125,1.78701,0.30306,0.423952,0.927734,0,0
0.624375,1.78701,0.30306,0.423952,0.927734,0,0
0.625625,1.78747,0.303067,0.423852,0.927722,0,0
0.626875,1.78747,0.303067,0.423852,0.927722,0,0
0.628125,1.78747,0.303067,0.423852,0.927722,0,0
0.629375,1.78747,0.303067,0.423852,0.927722,0,0
0.630625,1.78799,0.303074,0.423739,0.927711,0,0
0.631875,1.78799,0.303074,0.423739,0.927711,0,0
0.633125,1.78799,0.303074,0.423739,0.927711,0,0
0.634375,1.78799,0.303074,0.423739,0.927711,0,0
0.635625,1.78857,0.30308,0.42361,0.927702,0,0
0.636875,1.78857,0.30308,0.42361,0.927702,0,0
0.638125,1.78857,0.30308,0.42361,0.927702,0,0
0.639375,1.78857,0.30308,0.42361,0.927702,0,0
0.640625,1.78925,0.303087,0.423459,0.927698,0,0
0.641875,1.78925,0.303087,0.423459,0.927698,0,0
0.643125,1.78925,0.303087,0.423459,0.927698,0,0
0.644375,1.78925,0.303087,0.423459,0.927698,0,0
0.645625,1.79006,0.303093,0.423277,0.927699,0,0
0.646875,1.79006,0.303093,0.423277,0.927699,0,0
0.648125,1.79006,0.303093,0.423277,0.927699,0,0
0.649375,1.79006,0.303093,0.423277,0.927699,0,0
0.650625,1.79109,0.3031,0.423044,0.927711,0,0
0.651875,1.79109,0.3031,0.423044,0.927711,0,0
0.653125,1.79109,0.3031,0.423044,0.927711,0,0
0.654375,1.79109,0.3031,0.423044,0.927711,0,0
0.655625,1.79248,0.303108,0.422726,0.927737,0,0
0.656875,1.79248,0.303108,0.422726,0.927737,0,0
0.658125,1.79248,0.303108,0.422726,0.927737,0,0
0.659375,1.79248,0.303108,0.422726,0.927737,0,0
0.660625,1.79448,0.303116,0.422267,0.927785,0,0
0.661875,1.79448,0.303116,0.422267,0.927785,0,0
0.663125,1.79448,0.303116,0.422267,0.927785,0,0
0.664375,1.79448,0.303116,0.422267,0.927785,0,0
0.665625,1.79745,0.303126,0.421581,0.927865,0,0
0.666875,1.79745,0.303126,0.421581,0.927865,0,0
0.668125,1.79745,0.303126,0.421581,0.927865,0,0
0.669375,1.79745,0.303126,0.421581,0.927865,0,0
0.670625,1.80193,0.303136,0.420548,0.927984,0,0
0.671875,1.80193,0.303136,0.420548,0.927984,0,0
0.673125,1.80193,0.303136,0.420548,0.927984,0,0
0.674375,1.80193,0.303136,0.420548,0.927984,0,0
0.675625,1.80861,0.303147,0.419009,0.928152,0,0
0.676875,1.80861,0.303147,0.419009,0.928152,0,0
0.678125,1.80861,0.303147,0.419009,0.928152,0,0
0.679375,1.80861,0.303147,0.419009,0.928152,0,0
0.680625,1.81836,0.303157,0.416777,0.928375,0,0
0.681875,1.81836,0.303157,0.416777,0.928375,0,0
0.683125,1.81836,0.303157,0.416777,0.928375,0,0
0.684375,1.81836,0.303157,0.416777,0.928375,0,0
0.685625,1.83219,0.303167,0.413644,0.928654,0,0
0.686875,1.83219,0.303167,0.413644,0.928654,0,0
0.688125,1.83219,0.303167,0.413644,0.928654,0,0
0.689375,1.83219,0.303167,0.413644,0.928654,0,0
0.690625,1.85121,0.303176,0.409406,0.928987,0,0
0.691875,1.85121,0.303176,0.409406,0.928987,0,0
0.693125,1.85121,0.303176,0.409406,0.928987,0,0
0.694375,1.85121,0.303176,0.409406,0.928987,0,0
0.695625,1.87653,0.303182,0.40389,0.929364,0,0
0.696875,1.87653,0.303182,0.40389,0.929364,0,0
0.698125,1.87653,0.303182,0.40389,0.929364,0,0
0.699375,1.87653,0.303182,0.40389,0.929364,0,0
0.700625,1.90919,0.303185,0.396985,0.929771,0,0
0.701875,1.90919,0.303185,0.396985,0.929771,0,0
0.703125,1.90919,0.303185,0.396985,0.929771,0,0
0.704375,1.90919,0.303185,0.396985,0.929771,0,0
0.705625,1.95004,0.303185,0.388668,0.930187,0,0
0.706875,1.95004,0.303185,0.388668,0.930187,0,0
0.708125,1.95004,0.303185,0.388668,0.930187,0,0
0.709375,1.95004,0.303185,0.388668,0.930187,0,0
0.710625,1.99959,0.30318,0.379032,0.930588,0,0
0.711875,1.99959,0.30318,0.379032,0.930588,0,0
0.713125,1.99959,0.30318,0.379032,0.930588,0,0
0.714375,1.99959,0.30318,0.379032,0.930588,0,0
0.715625,2.05788,0.303172,0.368286,0.930944,0,0
0.716875,2.05788,0.303172,0.368286,0.930944,0,0
0.718125,2.05788,0.303172,0.368286,0.930944,0,0
0.719375,2.05788,0.303172,0.368286,0.930944,0,0
0.720625,2.12434,0.303161,0.356751,0.931228,0,0
0.721875,2.12434,0.303161,0.356751,0.931228,0,0
0.723125,2.12434,0.303161,0.356751,0.931228,0,0
0.724375,2.12434,0.303161,0.356751,0.931228,0,0
0.725625,2.19768,0.303147,0.34483,0.931414,0,0
0.726875,2.19768,0.303147,0.34483,0.931414,0,0
0.728125,2.19768,0.303147,0.34483,0.931414,0,0
0.729375,2.19768,0.303147,0.34483,0.931414,0,0
0.730625,2.27591,0.303131,0.332959,0.93148,0,0
0.731875,2.27591,0.303131,0.332959,0.93148,0,0
0.733125,2.27591,0.303131,0.332959,0.93148,0,0
0.734375,2.27591,0.303131,0.332959,0.93148,0,0
0.735625,2.35643,0.303115,0.321566,0.931416,0,0
0.736875,2.35643,0.303115,0.321566,0.931416,0,0
0.738125,2.35643,0.303115,0.321566,0.931416,0,0
0.739375,2.35643,0.303115,0.321566,0.931416,0,0
0.740625,2.43627,0.303102,0.311013,0.931224,0,0
0.741875,2.43627,0.303102,0.311013,0.931224,0,0
0.743125,2.43627,0.303102,0.311013,0.931224,0,0
0.744375,2.43627,0.303102,0.311013,0.931224,0,0
0.745625,2.51246,0.303091,0.301571,0.930919,0,0
0.746875,2.51246,0.303091,0.301571,0.930919,0,0
0.748125,2.51246,0.303091,0.301571,0.930919,0,0
0.749375,2.51246,0.303091,0.301571,0.930919,0,0
0.750625,2.58238,0.303084,0.293399,0.930529,0,0
0.751875,2.58238,0.303084,0.293399,0.930529,0,0
0.753125,2.58238,0.303084,0.293399,0.930529,0,0
0.754375,2.58238,0.303084,0.293399,0.930529,0,0
0.755625,2.64408,0.303082,0.28655,0.930088,0,0
0.756875,2.64408,0.303082,0.28655,0.930088,0,0
0.758125,2.64408,0.303082,0.28655,0.930088,0,0
0.759375,2.64408,0.303082,0.28655,0.930088,0,0
0.760625,2.69647,0.303083,0.280984,0.929634,0,0
0.761875,2.69647,0.303083,0.280984,0.929634,0,0
0.763125,2.69647,0.303083,0.280984,0.929634,0,0
0.764375,2.69647,0.303083,0.280984,0.929634,0,0
0.765625,2.73931,0.303088,0.276594,0.929199,0,0
0.766875,2.73931,0.303088,0.276594,0.929199,0,0
0.768125,2.73931,0.303088,0.276594,0.929199,0,0
0.769375,2.73931,0.303088,0.276594,0.929199,0,0
0.770625,2.77308,0.303094,0.273232,0.928807,0,0
0.771875,2.77308,0.303094,0.273232,0.928807,0,0
0.773125,2.77308,0.303094,0.273232,0.928807,0,0
0.774375,2.77308,0.303094,0.273232,0.928807,0,0
0.775625,2.79876,0.303101,0.27073,0.928473,0,0
0.776875,2.79876,0.303101,0.27073,0.928473,0,0
0.778125,2.79876,0.303101,0.27073,0.928473,0,0
0.779375,2.79876,0.303101,0.27073,0.928473,0,0
0.780625,2.81764,0.303108,0.268922,0.928201,0,0
0.781875,2.81764,0.303108,0.268922,0.928201,0,0
0.783125,2.81764,0.303108,0.268922,0.928201,0,0
0.784375,2.81764,0.303108,0.268922,0.928201,0,0
0.785625,2.83104,0.303114,0.267655,0.927988,0,0
0.786875,2.83104,0.303114,0.267655,0.927988,0,0